Siesta Version  : 4.1.5
Architecture    : unknown
Compiler version: GNU Fortran (conda-forge gcc 12.3.0-2) 12.3.0
Compiler flags  : x86_64-conda-linux-gnu-gfortran -march=nocona -mtune=haswell -ftree-vectorizee -fPIC -fstack-protector-strong -fno-plt -O2 -ffunction-sections -pipe  -fallow-argument-mismatch
PP flags        : -DFC_HAVE_ABORT -DCDF -DNCDF -DNCDF_4
Libraries       : libncdf.a libfdict.a -llapack -lblas -lnetcdff -lnetcdf -lhdf5_hl -lhdf5 -lz
SERIAL version
NetCDF support
NetCDF-4 support

* Running in serial mode
>> Start of run:  18-MAR-2024  22:33:38

                           ***********************       
                           *  WELCOME TO SIESTA  *       
                           ***********************       

reinit: Reading from xoc.fdf

reinit: -----------------------------------------------------------------------
reinit: System Name: H2 + O2 -> H2O2 reaction
reinit: -----------------------------------------------------------------------
reinit: System Label: xoc
reinit: -----------------------------------------------------------------------

initatom: Reading input for the pseudopotentials and atomic orbitals ----------
Species number:   1 Atomic number:    8 Label: O
Species number:   2 Atomic number:    1 Label: H

Ground state valence configuration:   2s02  2p04
Reading pseudopotential information in formatted form from O.psf

Pseudopotential generated from a relativistic atomic calculation

Valence configuration for pseudopotential generation:
2s( 2.00) rc: 1.14
2p( 4.00) rc: 1.14
3d( 0.00) rc: 1.14
4f( 0.00) rc: 1.14
Ground state valence configuration:   1s01
Reading pseudopotential information in unformatted form from H.vps

Valence configuration for pseudopotential generation:
1s( 1.00) rc: 1.25
2p( 0.00) rc: 1.25
3d( 0.00) rc: 1.25
4f( 0.00) rc: 1.25
For O, standard SIESTA heuristics set lmxkb to 3
 (one more than the basis l, including polarization orbitals).
Use PS.lmax or PS.KBprojectors blocks to override.
For H, standard SIESTA heuristics set lmxkb to 2
 (one more than the basis l, including polarization orbitals).
Use PS.lmax or PS.KBprojectors blocks to override.

<basis_specs>
===============================================================================
O                    Z=   8    Mass=  16.000        Charge=-0.18518    
Lmxo=2 Lmxkb= 3    BasisType=split      Semic=F
L=0  Nsemic=0  Cnfigmx=2
          i=1  nzeta=2  polorb=0  (2s)
            splnorm:   0.15000    
               vcte:    87.074    
               rinn:    4.7393    
               qcoe:    0.0000    
               qyuk:    0.0000    
               qwid:   0.10000E-01
                rcs:    7.3294      4.6037    
            lambdas:    1.0000      1.0000    
L=1  Nsemic=0  Cnfigmx=2
          i=1  nzeta=2  polorb=0  (2p)
            splnorm:   0.15000    
               vcte:    68.296    
               rinn:    4.9704    
               qcoe:    0.0000    
               qyuk:    0.0000    
               qwid:   0.10000E-01
                rcs:    6.6025      3.0467    
            lambdas:    1.0000      1.0000    
L=2  Nsemic=0  Cnfigmx=3
          i=1  nzeta=1  polorb=0  (3d)
            splnorm:   0.15000    
               vcte:    91.071    
               rinn:    3.9512    
               qcoe:    0.0000    
               qyuk:    0.0000    
               qwid:   0.10000E-01
                rcs:    6.8934    
            lambdas:    1.0000    
-------------------------------------------------------------------------------
L=0  Nkbl=1  erefs: 0.17977+309
L=1  Nkbl=1  erefs: 0.17977+309
L=2  Nkbl=1  erefs: 0.17977+309
L=3  Nkbl=1  erefs: 0.17977+309
===============================================================================
</basis_specs>

atom: Called for O                     (Z =   8)

read_vps: Pseudopotential generation method:
read_vps: ATM3      Troullier-Martins                       
Valence charge for ps generation:    6.00000

read_vps: Pseudopotential includes a core correction:
read_vps: Pseudo-core for xc-correction

xc_check: Exchange-correlation functional:
xc_check: GGA Perdew, Burke & Ernzerhof 1996
V l=0 = -2*Zval/r beyond r=  1.1278
V l=1 = -2*Zval/r beyond r=  1.1278
V l=2 = -2*Zval/r beyond r=  1.1278
V l=3 = -2*Zval/r beyond r=  1.1278
All V_l potentials equal beyond r=  1.1278
This should be close to max(r_c) in ps generation
All pots = -2*Zval/r beyond r=  1.1278

VLOCAL1: 99.0% of the norm of Vloc inside     34.126 Ry
VLOCAL1: 99.9% of the norm of Vloc inside     77.774 Ry
atom: Maximum radius for 4*pi*r*r*local-pseudopot. charge    1.37759
atom: Maximum radius for r*vlocal+2*Zval:    1.18566
GHOST: No ghost state for L =  0
GHOST: No ghost state for L =  1
GHOST: No ghost state for L =  2
GHOST: No ghost state for L =  3

KBgen: Kleinman-Bylander projectors: 
   l= 0   rc=  1.360471   el= -1.759790   Ekb=  9.210761   kbcos=  0.328866
   l= 1   rc=  1.360471   el= -0.663797   Ekb= -7.921990   kbcos= -0.392961
   l= 2   rc=  1.791199   el=  0.002031   Ekb= -1.950550   kbcos= -0.003498
   l= 3   rc=  2.107308   el=  0.003153   Ekb= -0.856060   kbcos= -0.000334

KBgen: Total number of Kleinman-Bylander projectors:   16
atom: -------------------------------------------------------------------------

atom: SANKEY-TYPE ORBITALS:
atom: Selected multiple-zeta basis: split     

atom: basis set generated (by rescaling the valence charge)
atom: for an anion of charge  -0.1852

SPLIT: Orbitals with angular momentum L= 0

SPLIT: Basis orbitals for state 2s

   izeta = 1
                 lambda =    1.000000
                     rc =    7.356000
                 energy =   -1.758588
                kinetic =    1.491851
    potential(screened) =   -3.250439
       potential(ionic) =  -11.062471

   izeta = 2
                 rmatch =    4.690281
              splitnorm =    0.003309
                 energy =   -1.757602
* WARNING: effective split_norm is quite small. Orbitals will be very similar.
                kinetic =    1.574378
    potential(screened) =   -3.331980
       potential(ionic) =  -11.238433

SPLIT: Orbitals with angular momentum L= 1

SPLIT: Basis orbitals for state 2p

   izeta = 1
                 lambda =    1.000000
                     rc =    6.655955
                 energy =   -0.659921
                kinetic =    4.410674
    potential(screened) =   -5.070596
       potential(ionic) =  -12.498772

   izeta = 2
                 rmatch =    3.066256
              splitnorm =    0.127283
                 energy =   -0.537509
                kinetic =    6.271972
    potential(screened) =   -6.809481
       potential(ionic) =  -15.130217

SPLIT: Orbitals with angular momentum L= 2

SPLIT: Basis orbitals for state 3d

   izeta = 1
                 lambda =    1.000000
                     rc =    6.997229
                 energy =    0.764795
                kinetic =    1.136799
    potential(screened) =   -0.372004
       potential(ionic) =   -3.984199
atom: Total number of Sankey-type orbitals: 13

atm_pop: Valence configuration (for local Pseudopot. screening):
 2s( 2.00)                                                            
 2p( 4.00)                                                            
 3d( 0.00)                                                            
Vna: chval, zval:    6.00000   6.00000

Vna:  Cut-off radius for the neutral-atom potential:   7.356000
comcore: Pseudo-core radius Rcore=  1.377587

atom: _________________________________________________________________________

<basis_specs>
===============================================================================
H                    Z=   1    Mass=  1.0100        Charge= 0.22000    
Lmxo=1 Lmxkb= 2    BasisType=split      Semic=F
L=0  Nsemic=0  Cnfigmx=1
          i=1  nzeta=2  polorb=0  (1s)
            splnorm:   0.15000    
               vcte:    2.0700    
               rinn:    0.0000    
               qcoe:    0.0000    
               qyuk:    0.0000    
               qwid:   0.10000E-01
                rcs:    4.9710      1.7710    
            lambdas:    1.0000      1.0000    
L=1  Nsemic=0  Cnfigmx=2
          i=1  nzeta=1  polorb=0  (2p)
            splnorm:   0.15000    
               vcte:   0.89000    
               rinn:   0.10000E-01
               qcoe:    0.0000    
               qyuk:    0.0000    
               qwid:   0.10000E-01
                rcs:    4.9880    
            lambdas:    1.0000    
-------------------------------------------------------------------------------
L=0  Nkbl=1  erefs: 0.17977+309
L=1  Nkbl=1  erefs: 0.17977+309
L=2  Nkbl=1  erefs: 0.17977+309
===============================================================================
</basis_specs>

atom: Called for H                     (Z =   1)

read_vps: Pseudopotential generation method:
read_vps: ATM3      Troullier-Martins                       
Valence charge for ps generation:    1.00000

xc_check: Exchange-correlation functional:
xc_check: GGA Perdew, Burke & Ernzerhof 1996
V l=0 = -2*Zval/r beyond r=  1.2343
V l=1 = -2*Zval/r beyond r=  1.2189
V l=2 = -2*Zval/r beyond r=  1.2189
All V_l potentials equal beyond r=  1.2343
This should be close to max(r_c) in ps generation
All pots = -2*Zval/r beyond r=  1.2343

VLOCAL1: 99.0% of the norm of Vloc inside     28.493 Ry
VLOCAL1: 99.9% of the norm of Vloc inside     64.935 Ry
atom: Maximum radius for 4*pi*r*r*local-pseudopot. charge    1.45251
atom: Maximum radius for r*vlocal+2*Zval:    1.21892
GHOST: No ghost state for L =  0
GHOST: No ghost state for L =  1
GHOST: No ghost state for L =  2

KBgen: Kleinman-Bylander projectors: 
   l= 0   rc=  1.364359   el= -0.477200   Ekb= -2.021939   kbcos= -0.344793
   l= 1   rc=  1.434438   el=  0.001076   Ekb= -0.443447   kbcos= -0.022843
   l= 2   rc=  1.470814   el=  0.002010   Ekb= -0.140543   kbcos= -0.002863

KBgen: Total number of Kleinman-Bylander projectors:    9
atom: -------------------------------------------------------------------------

atom: SANKEY-TYPE ORBITALS:
atom: Selected multiple-zeta basis: split     

atom: basis set generated (by rescaling the valence charge)
atom: for a cation of charge   0.2200

SPLIT: Orbitals with angular momentum L= 0

SPLIT: Basis orbitals for state 1s

   izeta = 1
                 lambda =    1.000000
                     rc =    4.950554
                 energy =   -0.678603
                kinetic =    1.118239
    potential(screened) =   -1.796842
       potential(ionic) =   -2.106311

   izeta = 2
                 rmatch =    1.774652
              splitnorm =    0.672347
                 energy =    1.027037
                kinetic =    4.730146
    potential(screened) =   -3.703109
       potential(ionic) =   -3.968059

SPLIT: Orbitals with angular momentum L= 1

SPLIT: Basis orbitals for state 2p

   izeta = 1
                 lambda =    1.000000
                     rc =    5.075940
                 energy =    0.310352
                kinetic =    0.887169
    potential(screened) =   -0.576817
       potential(ionic) =   -0.872649
atom: Total number of Sankey-type orbitals:  5

atm_pop: Valence configuration (for local Pseudopot. screening):
 1s( 1.00)                                                            
 2p( 0.00)                                                            
Vna: chval, zval:    1.00000   1.00000

Vna:  Cut-off radius for the neutral-atom potential:   4.950554

atom: _________________________________________________________________________

prinput: Basis input ----------------------------------------------------------

PAO.BasisType split     

%block ChemicalSpeciesLabel
    1    8 O                       # Species index, atomic number, species label
    2    1 H                       # Species index, atomic number, species label
%endblock ChemicalSpeciesLabel

%block PAO.Basis                 # Define Basis set
O                     3  -0.185            # Label, l-shells, ionic net charge
 n=2   0   2                         # n, l, Nzeta 
   7.356      4.690   
   1.000      1.000   
 n=2   1   2                         # n, l, Nzeta 
   6.656      3.066   
   1.000      1.000   
 n=3   2   1                         # n, l, Nzeta 
   6.997   
   1.000   
H                     2   0.220            # Label, l-shells, ionic net charge
 n=1   0   2                         # n, l, Nzeta 
   4.951      1.775   
   1.000      1.000   
 n=2   1   1                         # n, l, Nzeta 
   5.076   
   1.000   
%endblock PAO.Basis

prinput: ----------------------------------------------------------------------

Dumping basis to NetCDF file O.ion.nc
Dumping basis to NetCDF file H.ion.nc
coor:   Atomic-coordinates input format  =     Cartesian coordinates
coor:                                          (in Angstroms)

ioxv: Reading coordinates and velocities from file
! Info in XV file prevails over previous structure input

siesta: Atomic coordinates (Bohr) and species
siesta:     -3.41013  -0.57881   0.00437  1        1
siesta:     -1.22984   0.71223  -0.01095  1        2
siesta:      2.87345  -1.79021   0.06017  2        3
siesta:      2.81220  -0.33718   0.04518  2        4

siesta: System type = molecule  

initatomlists: Number of atoms, orbitals, and projectors:      4    36    50

coxmol: Writing XMOL coordinates into file xoc.xyz                                                             

siesta: ******************** Simulation parameters ****************************
siesta:
siesta: The following are some of the parameters of the simulation.
siesta: A complete list of the parameters used, including default values,
siesta: can be found in file out.fdf
siesta:
redata: Spin configuration                          = none
redata: Number of spin components                   = 1
redata: Time-Reversal Symmetry                      = T
redata: Spin spiral                                 = F
redata: Long output                                 =   F
redata: Number of Atomic Species                    =        2
redata: Charge density info will appear in .RHO file
redata: Write Mulliken Pop.                         = NO
redata: Matel table size (NRTAB)                    =     1024
redata: Mesh Cutoff                                 =   200.0000 Ry
redata: Net charge of the system                    =     0.0000 |e|
redata: Min. number of SCF Iter                     =        0
redata: Max. number of SCF Iter                     =      150
redata: SCF convergence failure will abort job
redata: SCF mix quantity                            = Hamiltonian
redata: Mix DM or H after convergence               =   F
redata: Recompute H after scf cycle                 =   F
redata: Mix DM in first SCF step                    =   T
redata: Write Pulay info on disk                    =   F
redata: New DM Occupancy tolerance                  = 0.000000000001
redata: No kicks to SCF
redata: DM Mixing Weight for Kicks                  =     0.5000
redata: Require Harris convergence for SCF          =   F
redata: Harris energy tolerance for SCF             =     0.000100 eV
redata: Require DM convergence for SCF              =   T
redata: DM tolerance for SCF                        =     0.000300
redata: Require EDM convergence for SCF             =   F
redata: EDM tolerance for SCF                       =     0.001000 eV
redata: Require H convergence for SCF               =   T
redata: Hamiltonian tolerance for SCF               =     0.001000 eV
redata: Require (free) Energy convergence for SCF   =   F
redata: (free) Energy tolerance for SCF             =     0.000100 eV
redata: Using Saved Data (generic)                  =   F
redata: Use continuation files for DM               =   F
redata: Neglect nonoverlap interactions             =   F
redata: Method of Calculation                       = Diagonalization
redata: Electronic Temperature                      =   290.1109 K
redata: Fix the spin of the system                  =   F
redata: Dynamics option                             = Verlet MD run
redata: Initial MD time step                        =        1
redata:   Final MD time step                        =      100
redata: Length of MD time step                      =     1.0000 fs
redata: Initial Temperature of MD run               =     0.0000 K
redata: Perform a MD quench                         =   F
mix.SCF: Pulay mixing                            = Pulay
mix.SCF:    Variant                              = stable
mix.SCF:    History steps                        = 6
mix.SCF:    Linear mixing weight                 =     0.020000
mix.SCF:    Mixing weight                        =     0.020000
mix.SCF:    SVD condition                        = 0.1000E-07
redata: Save all siesta data in one NC              =   F
redata: ***********************************************************************

%block SCF.Mixers
  Pulay
%endblock SCF.Mixers

%block SCF.Mixer.Pulay
  # Mixing method
  method pulay
  variant stable

  # Mixing options
  weight 0.0200
  weight.linear 0.0200
  history 6
%endblock SCF.Mixer.Pulay

Size of DM history Fstack: 1
Total number of electrons:    14.000000
Total ionic charge:    14.000000
 Kpoints in:            1 . Kpoints trimmed:            1

siesta: k-grid: Number of k-points =     1
siesta: k-grid: Cutoff (effective) =     5.000 Ang
siesta: k-grid: Supercell and displacements
siesta: k-grid:    1   0   0      0.000
siesta: k-grid:    0   1   0      0.000
siesta: k-grid:    0   0   1      0.000

diag: Algorithm                                     = D&C
diag: Used triangular part                          = Lower
diag: Absolute tolerance                            =  0.100E-15
diag: Orthogonalization factor                      =  0.100E-05
diag: Memory factor                                 =  1.0000


ts: **************************************************************
ts: Save H and S matrices                           =    F
ts: Save DM and EDM matrices                        =    F
ts: Only save the overlap matrix S                  =    F
ts: **************************************************************

************************ Begin: TS CHECKS AND WARNINGS ************************
************************ End: TS CHECKS AND WARNINGS **************************


                     ====================================
                        Begin MD step =      1
                     ====================================

outcell: Unit cell vectors (Ang):
       10.000000    0.000000    0.000000
        0.000000   10.000000    0.000000
        0.000000    0.000000   10.000000

outcell: Cell vector modules (Ang)   :   10.000000   10.000000   10.000000
outcell: Cell angles (23,13,12) (deg):     90.0000     90.0000     90.0000
outcell: Cell volume (Ang**3)        :   1000.0000
<dSpData1D:S at geom step 1
  <sparsity:sparsity for geom step 1
    nrows_g=36 nrows=36 sparsity=.9907 nnzs=1284, refcount: 7>
  <dData1D:(new from dSpData1D) n=1284, refcount: 1>
refcount: 1>
new_DM -- step:     1
Initializing Density Matrix...
DM filled with atomic data:
<dSpData2D:DM initialized from atoms
  <sparsity:sparsity for geom step 1
    nrows_g=36 nrows=36 sparsity=.9907 nnzs=1284, refcount: 8>
  <dData2D:DM n=1284 m=1, refcount: 1>
refcount: 1>
No. of atoms with KB's overlaping orbs in proc 0. Max # of overlaps:       4      34
New grid distribution:   1
           1       1:   45    1:   45    1:   45

InitMesh: MESH =    90 x    90 x    90 =      729000
InitMesh: (bp) =    45 x    45 x    45 =       91125
InitMesh: Mesh cutoff (required, used) =   200.000   223.865 Ry
ExtMesh (bp) on 0 =   117 x   117 x   117 =     1601613
PhiOnMesh: Number of (b)points on node 0 =                91125
PhiOnMesh: nlist on node 0 =               451076

stepf: Fermi-Dirac step function

siesta: Program's energy decomposition (eV):
siesta: Ebs     =      -180.620680
siesta: Eions   =      1592.294315
siesta: Ena     =       380.485379
siesta: Ekin    =       663.425470
siesta: Enl     =       -99.573869
siesta: Eso     =         0.000000
siesta: Edftu   =         0.000000
siesta: DEna    =       -44.208957
siesta: DUscf   =         3.765081
siesta: DUext   =         0.000000
siesta: Exc     =      -210.963082
siesta: eta*DQ  =         0.000000
siesta: Emadel  =         0.000000
siesta: Emeta   =         0.000000
siesta: Emolmec =         0.000000
siesta: Ekinion =         0.000000
siesta: Eharris =      -899.630394
siesta: Etot    =      -899.364293
siesta: FreeEng =      -899.404449

        iscf     Eharris(eV)        E_KS(eV)     FreeEng(eV)     dDmax    Ef(eV) dHmax(eV)
   scf:    1     -899.630394     -899.364293     -899.404449  3.393682 -9.533905  6.398702
timer: Routine,Calls,Time,% = IterSCF        1       1.022  28.89
   scf:    2     -899.710289     -899.542490     -899.591702  0.063378 -9.431125  5.892124
   scf:    3     -898.536726     -899.775802     -899.797193  0.970395 -8.091651  3.237553
   scf:    4     -899.802460     -899.825882     -899.832214  1.268177 -6.790744  1.982490
   scf:    5     -900.098672     -899.970819     -899.994154  0.272311 -6.580081  1.894472
   scf:    6     -900.123261     -900.048635     -900.080667  0.047921 -6.605290  1.697164
   scf:    7     -898.130075     -899.999204     -900.000873  1.195274 -6.646354  1.371368
   scf:    8     -900.008825     -900.007393     -900.007796  0.130055 -6.833929  0.983060
   scf:    9     -900.015810     -900.011835     -900.013274  0.094702 -6.910750  1.054256
   scf:   10     -900.050975     -900.031521     -900.037347  0.015804 -6.889624  0.933386
   scf:   11     -900.246573     -900.481544     -900.550081  0.719776 -6.911861  0.163972
   scf:   12     -899.192084     -899.995083     -900.016877  0.500245 -6.877490  0.867099
   scf:   13     -900.339976     -900.492730     -900.560251  0.704816 -6.901687  0.157075
   scf:   14     -899.503314     -900.201697     -900.246793  0.559573 -6.888295  0.654204
   scf:   15     -900.493633     -900.362821     -900.422481  0.153427 -6.893732  0.437589
   scf:   16     -900.491191     -900.501481     -900.570466  0.335725 -6.898991  0.044556
   scf:   17     -900.477255     -900.494288     -900.563474  0.086159 -6.897946  0.081768
   scf:   18     -900.348264     -900.461871     -900.525695  0.247512 -6.907940  0.304981
   scf:   19     -900.462914     -900.462394     -900.526278  0.001313 -6.908933  0.305304
   scf:   20     -900.480911     -900.471987     -900.536974  0.022498 -6.908273  0.270350
   scf:   21     -900.503680     -900.501619     -900.570678  0.143950 -6.896584  0.031585
   scf:   22     -900.500898     -900.501466     -900.570681  0.017486 -6.891059  0.014847
   scf:   23     -900.501711     -900.501612     -900.570782  0.006088 -6.889565  0.009042
   scf:   24     -900.501680     -900.501664     -900.570789  0.005287 -6.888339  0.007600
   scf:   25     -900.500657     -900.501314     -900.570555  0.015799 -6.891170  0.017027
   scf:   26     -900.501738     -900.501670     -900.570799  0.015008 -6.887834  0.006781
   scf:   27     -900.501668     -900.501669     -900.570802  0.003870 -6.886714  0.005523
   scf:   28     -900.501668     -900.501669     -900.570803  0.000705 -6.885918  0.005257
   scf:   29     -900.501660     -900.501665     -900.570804  0.001695 -6.885305  0.005016
   scf:   30     -900.501661     -900.501663     -900.570805  0.001894 -6.885392  0.003924
   scf:   31     -900.501662     -900.501662     -900.570805  0.000316 -6.885440  0.002715
   scf:   32     -900.501656     -900.501660     -900.570805  0.000452 -6.885445  0.002147
   scf:   33     -900.501647     -900.501653     -900.570805  0.001022 -6.885495  0.001554
   scf:   34     -900.501662     -900.501658     -900.570805  0.001444 -6.885204  0.001331
   scf:   35     -900.501659     -900.501658     -900.570805  0.000055 -6.885132  0.001356
   scf:   36     -900.501658     -900.501658     -900.570805  0.000517 -6.885074  0.001326
   scf:   37     -900.501659     -900.501658     -900.570805  0.000166 -6.885123  0.001320
   scf:   38     -900.501660     -900.501659     -900.570806  0.000107 -6.885169  0.001061
   scf:   39     -900.501658     -900.501659     -900.570805  0.000112 -6.885175  0.000900

SCF Convergence by DM+H criterion
max |DM_out - DM_in|         :     0.0001122831
max |H_out - H_in|      (eV) :     0.0008999301
SCF cycle converged after 39 iterations

Using DM_out to compute the final energy and forces
No. of atoms with KB's overlaping orbs in proc 0. Max # of overlaps:       4      34

siesta: E_KS(eV) =             -900.5017

siesta: E_KS - E_eggbox =      -900.5017

siesta: Atomic forces (eV/Ang):
----------------------------------------
   Tot    0.001852    0.000054    0.001377
----------------------------------------
   Max    1.716767
   Res    0.799218    sqrt( Sum f_i^2 / 3N )
----------------------------------------
   Max    1.716767    constrained

Stress tensor Voigt[x,y,z,yz,xz,xy] (kbar):      -69.18       -1.71        0.01        0.08       -0.15        5.17
(Free)E + p*V (eV/cell)     -885.8230
Target enthalpy (eV/cell)     -900.5708

siesta: Stress tensor (static) (eV/Ang**3):
         0.001062    0.001215   -0.000021
         0.001215    0.001097   -0.000009
        -0.000021   -0.000009    0.000007

siesta: Pressure (static):         -1.15685218  kBar

siesta: Stress tensor (total) (eV/Ang**3):
        -0.043180    0.003226   -0.000091
         0.003226   -0.001068    0.000050
        -0.000091    0.000050    0.000005

siesta: Pressure (total):         23.62876905  kBar
 MD restart: Read old forces from VERLET_RESTART

siesta: Temp_ion =   60396.637 K

                     ====================================
                        Begin MD step =      2
                     ====================================

outcell: Unit cell vectors (Ang):
       10.000000    0.000000    0.000000
        0.000000   10.000000    0.000000
        0.000000    0.000000   10.000000

outcell: Cell vector modules (Ang)   :   10.000000   10.000000   10.000000
outcell: Cell angles (23,13,12) (deg):     90.0000     90.0000     90.0000
outcell: Cell volume (Ang**3)        :   1000.0000
<dSpData1D:S at geom step 2
  <sparsity:sparsity for geom step 2
    nrows_g=36 nrows=36 sparsity=.9892 nnzs=1282, refcount: 7>
  <dData1D:(new from dSpData1D) n=1282, refcount: 1>
refcount: 1>
new_DM -- step:     2
Re-using DM from previous geometries...
Number of DMs in history: 1
 DM extrapolation coefficients: 
1   1.00000
New DM after history re-use:
<dSpData2D:SpM extrapolated using coords
  <sparsity:sparsity for geom step 2
    nrows_g=36 nrows=36 sparsity=.9892 nnzs=1282, refcount: 9>
  <dData2D:(temp array for extrapolation) n=1282 m=1, refcount: 1>
refcount: 1>
Note: For starting DM, Qtot, Tr[D*S] =         14.00000000         13.97966590
No. of atoms with KB's overlaping orbs in proc 0. Max # of overlaps:       4      34
New grid distribution:   1
           1       1:   45    1:   45    1:   45

InitMesh: MESH =    90 x    90 x    90 =      729000
InitMesh: (bp) =    45 x    45 x    45 =       91125
InitMesh: Mesh cutoff (required, used) =   200.000   223.865 Ry
ExtMesh (bp) on 0 =   117 x   117 x   117 =     1601613
PhiOnMesh: Number of (b)points on node 0 =                91125
PhiOnMesh: nlist on node 0 =               451205

        iscf     Eharris(eV)        E_KS(eV)     FreeEng(eV)     dDmax    Ef(eV) dHmax(eV)
   scf:    1     -900.439807     -900.452524     -900.520078  0.216146 -6.771823  0.601732
   scf:    2     -898.643194     -899.949677     -899.952960  0.761806 -7.107575  1.873770
   scf:    3     -900.629527     -900.365587     -900.421621  0.310105 -6.867320  0.462831
   scf:    4     -900.232222     -900.302230     -900.351394  0.070742 -6.879793  0.511868
   scf:    5     -899.978885     -900.400073     -900.463288  0.630715 -7.018428  0.321429
   scf:    6     -900.480353     -900.444100     -900.510771  0.079174 -6.964475  0.184894
   scf:    7     -900.347764     -900.461399     -900.527481  0.314068 -6.939409  0.158865
   scf:    8     -900.378904     -900.424314     -900.486437  0.078948 -6.942272  0.278195
   scf:    9     -900.486877     -900.459161     -900.524997  0.073085 -6.931612  0.149861
   scf:   10     -900.484644     -900.486099     -900.555342  0.146333 -6.949069  0.005238
   scf:   11     -900.486065     -900.486083     -900.555334  0.001367 -6.949485  0.005855
   scf:   12     -900.486098     -900.486117     -900.555328  0.006246 -6.948977  0.005191
   scf:   13     -900.486100     -900.486114     -900.555345  0.002806 -6.951063  0.001367
   scf:   14     -900.486104     -900.486109     -900.555345  0.000842 -6.951575  0.000498
   scf:   15     -900.486120     -900.486116     -900.555345  0.001048 -6.951488  0.000938
   scf:   16     -900.486107     -900.486112     -900.555346  0.000776 -6.951772  0.000357
   scf:   17     -900.486111     -900.486111     -900.555346  0.000113 -6.951774  0.000356

SCF Convergence by DM+H criterion
max |DM_out - DM_in|         :     0.0001131766
max |H_out - H_in|      (eV) :     0.0003555319
SCF cycle converged after 17 iterations

Using DM_out to compute the final energy and forces
No. of atoms with KB's overlaping orbs in proc 0. Max # of overlaps:       4      34

siesta: E_KS(eV) =             -900.4861

siesta: Atomic forces (eV/Ang):
----------------------------------------
   Tot   -0.000075   -0.007483   -0.001022
----------------------------------------
   Max    1.819221
   Res    1.056553    sqrt( Sum f_i^2 / 3N )
----------------------------------------
   Max    1.819221    constrained

Stress tensor Voigt[x,y,z,yz,xz,xy] (kbar):      -68.57       -0.26        0.01        0.06       -0.15        5.35
(Free)E + p*V (eV/cell)     -886.2365
Target enthalpy (eV/cell)     -900.5553

siesta: Stress tensor (static) (eV/Ang**3):
         0.001568    0.001242   -0.000019
         0.001242    0.001970   -0.000022
        -0.000019   -0.000022    0.000007

siesta: Pressure (static):         -1.89329582  kBar

siesta: Stress tensor (total) (eV/Ang**3):
        -0.042797    0.003340   -0.000092
         0.003340   -0.000164    0.000038
        -0.000092    0.000038    0.000005

siesta: Pressure (total):         22.94157499  kBar

siesta: Temp_ion =   60371.082 K

                     ====================================
                        Begin MD step =      3
                     ====================================

outcell: Unit cell vectors (Ang):
       10.000000    0.000000    0.000000
        0.000000   10.000000    0.000000
        0.000000    0.000000   10.000000

outcell: Cell vector modules (Ang)   :   10.000000   10.000000   10.000000
outcell: Cell angles (23,13,12) (deg):     90.0000     90.0000     90.0000
outcell: Cell volume (Ang**3)        :   1000.0000
Gamma-point calculation with multiply-connected orbital pairs
Folding of H and S implicitly performed
<dSpData1D:S at geom step 3
  <sparsity:sparsity for geom step 3
    nrows_g=36 nrows=36 sparsity=.9830 nnzs=1274, refcount: 7>
  <dData1D:(new from dSpData1D) n=1274, refcount: 1>
refcount: 1>
new_DM -- step:     3
Re-using DM from previous geometries...
Number of DMs in history: 1
 DM extrapolation coefficients: 
1   1.00000
New DM after history re-use:
<dSpData2D:SpM extrapolated using coords
  <sparsity:sparsity for geom step 3
    nrows_g=36 nrows=36 sparsity=.9830 nnzs=1274, refcount: 9>
  <dData2D:(temp array for extrapolation) n=1274 m=1, refcount: 1>
refcount: 1>
No. of atoms with KB's overlaping orbs in proc 0. Max # of overlaps:       4      34
New grid distribution:   1
           1       1:   45    1:   45    1:   45

InitMesh: MESH =    90 x    90 x    90 =      729000
InitMesh: (bp) =    45 x    45 x    45 =       91125
InitMesh: Mesh cutoff (required, used) =   200.000   223.865 Ry
ExtMesh (bp) on 0 =   117 x   117 x   117 =     1601613
PhiOnMesh: Number of (b)points on node 0 =                91125
PhiOnMesh: nlist on node 0 =               451157

        iscf     Eharris(eV)        E_KS(eV)     FreeEng(eV)     dDmax    Ef(eV) dHmax(eV)
   scf:    1     -900.547275     -900.476839     -900.545281  0.116460 -6.979903  0.206875
   scf:    2     -898.900563     -900.011580     -900.023795  0.693162 -7.044151  1.134757
   scf:    3     -900.603576     -900.480718     -900.548666  0.501232 -6.990549  0.120604
   scf:    4     -900.454773     -900.468842     -900.535552  0.040215 -6.992149  0.151719
   scf:    5     -900.490985     -900.481081     -900.549062  0.042907 -7.003981  0.123193
   scf:    6     -900.406503     -900.472538     -900.540634  0.206509 -7.017581  0.131136
   scf:    7     -900.491017     -900.482750     -900.551592  0.037830 -7.018047  0.081134
   scf:    8     -900.379118     -900.464338     -900.530572  0.221933 -7.012787  0.182767
   scf:    9     -900.480000     -900.490758     -900.560068  0.165423 -7.013157  0.030290
   scf:   10     -900.491788     -900.491413     -900.560719  0.014536 -7.010527  0.014313
   scf:   11     -900.491560     -900.491538     -900.560818  0.008679 -7.010980  0.002385
   scf:   12     -900.491513     -900.491528     -900.560816  0.001881 -7.011117  0.003276
   scf:   13     -900.491542     -900.491539     -900.560817  0.002432 -7.011210  0.002398
   scf:   14     -900.491533     -900.491536     -900.560819  0.001007 -7.011728  0.000669
   scf:   15     -900.491536     -900.491536     -900.560819  0.000373 -7.011930  0.000315
   scf:   16     -900.491536     -900.491536     -900.560819  0.000079 -7.011935  0.000283

SCF Convergence by DM+H criterion
max |DM_out - DM_in|         :     0.0000786804
max |H_out - H_in|      (eV) :     0.0002825686
SCF cycle converged after 16 iterations

Using DM_out to compute the final energy and forces
No. of atoms with KB's overlaping orbs in proc 0. Max # of overlaps:       4      34

siesta: E_KS(eV) =             -900.4915

siesta: Atomic forces (eV/Ang):
----------------------------------------
   Tot    0.000838    0.001857   -0.000324
----------------------------------------
   Max    1.902825
   Res    1.131963    sqrt( Sum f_i^2 / 3N )
----------------------------------------
   Max    1.902825    constrained

Stress tensor Voigt[x,y,z,yz,xz,xy] (kbar):      -68.20        0.27        0.01        0.05       -0.15        5.47
(Free)E + p*V (eV/cell)     -886.4299
Target enthalpy (eV/cell)     -900.5608

siesta: Stress tensor (static) (eV/Ang**3):
         0.001888    0.001292   -0.000018
         0.001292    0.002195   -0.000029
        -0.000018   -0.000029    0.000007

siesta: Pressure (static):         -2.18395756  kBar

siesta: Stress tensor (total) (eV/Ang**3):
        -0.042568    0.003415   -0.000091
         0.003415    0.000171    0.000029
        -0.000091    0.000029    0.000005

siesta: Pressure (total):         22.64040490  kBar

siesta: Temp_ion =   60387.116 K

                     ====================================
                        Begin MD step =      4
                     ====================================

outcell: Unit cell vectors (Ang):
       10.000000    0.000000    0.000000
        0.000000   10.000000    0.000000
        0.000000    0.000000   10.000000

outcell: Cell vector modules (Ang)   :   10.000000   10.000000   10.000000
outcell: Cell angles (23,13,12) (deg):     90.0000     90.0000     90.0000
outcell: Cell volume (Ang**3)        :   1000.0000
Gamma-point calculation with multiply-connected orbital pairs
Folding of H and S implicitly performed
<dSpData1D:S at geom step 4
  <sparsity:sparsity for geom step 4
    nrows_g=36 nrows=36 sparsity=.9784 nnzs=1268, refcount: 7>
  <dData1D:(new from dSpData1D) n=1268, refcount: 1>
refcount: 1>
new_DM -- step:     4
Re-using DM from previous geometries...
Number of DMs in history: 1
 DM extrapolation coefficients: 
1   1.00000
New DM after history re-use:
<dSpData2D:SpM extrapolated using coords
  <sparsity:sparsity for geom step 4
    nrows_g=36 nrows=36 sparsity=.9784 nnzs=1268, refcount: 9>
  <dData2D:(temp array for extrapolation) n=1268 m=1, refcount: 1>
refcount: 1>
Note: For starting DM, Qtot, Tr[D*S] =         14.00000000         14.01754986
No. of atoms with KB's overlaping orbs in proc 0. Max # of overlaps:       4      34
New grid distribution:   1
           1       1:   45    1:   45    1:   45

InitMesh: MESH =    90 x    90 x    90 =      729000
InitMesh: (bp) =    45 x    45 x    45 =       91125
InitMesh: Mesh cutoff (required, used) =   200.000   223.865 Ry
ExtMesh (bp) on 0 =   117 x   117 x   117 =     1601613
PhiOnMesh: Number of (b)points on node 0 =                91125
PhiOnMesh: nlist on node 0 =               451233

        iscf     Eharris(eV)        E_KS(eV)     FreeEng(eV)     dDmax    Ef(eV) dHmax(eV)
   scf:    1     -900.674396     -900.524581     -900.593610  0.159960 -7.204262  0.332505
   scf:    2     -899.491827     -900.207948     -900.243406  0.561393 -6.960983  0.613776
   scf:    3     -900.638869     -900.494038     -900.559663  0.334639 -7.111864  0.301295
   scf:    4     -900.203126     -900.370222     -900.423612  0.180037 -7.097426  0.502715
   scf:    5     -900.253449     -900.491419     -900.557606  0.513770 -7.076608  0.178853
   scf:    6     -900.503129     -900.497418     -900.564113  0.017190 -7.046003  0.215086
   scf:    7     -900.087601     -900.422877     -900.481551  0.438848 -7.061235  0.335033
   scf:    8     -900.566600     -900.516116     -900.583852  0.177431 -7.063524  0.124871
   scf:    9     -900.533616     -900.530770     -900.600031  0.093199 -7.058699  0.011069
   scf:   10     -900.530990     -900.530906     -900.600193  0.006129 -7.058125  0.007332
   scf:   11     -900.530923     -900.530915     -900.600205  0.000722 -7.058448  0.005814
   scf:   12     -900.530763     -900.530903     -900.600215  0.009853 -7.060219  0.004569
   scf:   13     -900.530950     -900.530940     -900.600245  0.004511 -7.059379  0.000807
   scf:   14     -900.530939     -900.530940     -900.600245  0.000284 -7.059703  0.000611

SCF Convergence by DM+H criterion
max |DM_out - DM_in|         :     0.0002839140
max |H_out - H_in|      (eV) :     0.0006113842
SCF cycle converged after 14 iterations

Using DM_out to compute the final energy and forces
No. of atoms with KB's overlaping orbs in proc 0. Max # of overlaps:       4      34

siesta: E_KS(eV) =             -900.5309

siesta: Atomic forces (eV/Ang):
----------------------------------------
   Tot    0.003560   -0.004654    0.000059
----------------------------------------
   Max    1.941694
   Res    1.035269    sqrt( Sum f_i^2 / 3N )
----------------------------------------
   Max    1.941694    constrained

Stress tensor Voigt[x,y,z,yz,xz,xy] (kbar):      -68.08       -0.32        0.01        0.05       -0.15        5.69
(Free)E + p*V (eV/cell)     -886.3715
Target enthalpy (eV/cell)     -900.6002

siesta: Stress tensor (static) (eV/Ang**3):
         0.002039    0.001422   -0.000018
         0.001422    0.001762   -0.000024
        -0.000018   -0.000024    0.000006

siesta: Pressure (static):         -2.03373048  kBar

siesta: Stress tensor (total) (eV/Ang**3):
        -0.042490    0.003549   -0.000093
         0.003549   -0.000200    0.000030
        -0.000093    0.000030    0.000005

siesta: Pressure (total):         22.79722510  kBar

siesta: Temp_ion =   60477.117 K

                     ====================================
                        Begin MD step =      5
                     ====================================

outcell: Unit cell vectors (Ang):
       10.000000    0.000000    0.000000
        0.000000   10.000000    0.000000
        0.000000    0.000000   10.000000

outcell: Cell vector modules (Ang)   :   10.000000   10.000000   10.000000
outcell: Cell angles (23,13,12) (deg):     90.0000     90.0000     90.0000
outcell: Cell volume (Ang**3)        :   1000.0000
Gamma-point calculation with multiply-connected orbital pairs
Folding of H and S implicitly performed
<dSpData1D:S at geom step 5
  <sparsity:sparsity for geom step 5
    nrows_g=36 nrows=36 sparsity=.9784 nnzs=1268, refcount: 7>
  <dData1D:(new from dSpData1D) n=1268, refcount: 1>
refcount: 1>
new_DM -- step:     5
Re-using DM from previous geometries...
Number of DMs in history: 1
 DM extrapolation coefficients: 
1   1.00000
New DM after history re-use:
<dSpData2D:SpM extrapolated using coords
  <sparsity:sparsity for geom step 5
    nrows_g=36 nrows=36 sparsity=.9784 nnzs=1268, refcount: 9>
  <dData2D:(temp array for extrapolation) n=1268 m=1, refcount: 1>
refcount: 1>
Note: For starting DM, Qtot, Tr[D*S] =         14.00000000         14.02984926
No. of atoms with KB's overlaping orbs in proc 0. Max # of overlaps:       4      34
New grid distribution:   1
           1       1:   45    1:   45    1:   45

InitMesh: MESH =    90 x    90 x    90 =      729000
InitMesh: (bp) =    45 x    45 x    45 =       91125
InitMesh: Mesh cutoff (required, used) =   200.000   223.865 Ry
ExtMesh (bp) on 0 =   117 x   117 x   117 =     1601613
PhiOnMesh: Number of (b)points on node 0 =                91125
PhiOnMesh: nlist on node 0 =               451212

        iscf     Eharris(eV)        E_KS(eV)     FreeEng(eV)     dDmax    Ef(eV) dHmax(eV)
   scf:    1     -900.708103     -900.538126     -900.607385  0.234716 -7.343096  0.552531
   scf:    2     -900.188494     -900.431519     -900.491295  0.316981 -6.921082  0.871858
   scf:    3     -900.581500     -900.529443     -900.597487  0.185488 -7.136719  0.298330
   scf:    4     -900.500437     -900.535780     -900.604492  0.167534 -7.103814  0.080523
   scf:    5     -900.527802     -900.531982     -900.600375  0.016204 -7.106067  0.085484
   scf:    6     -900.494832     -900.534238     -900.602629  0.168563 -7.087338  0.075018
   scf:    7     -900.483418     -900.530751     -900.599046  0.173381 -7.071275  0.151343
   scf:    8     -900.544961     -900.543552     -900.612866  0.088461 -7.089270  0.006911
   scf:    9     -900.543598     -900.543592     -900.612904  0.004841 -7.089759  0.002146
   scf:   10     -900.543587     -900.543590     -900.612903  0.001050 -7.089663  0.001375
   scf:   11     -900.543594     -900.543593     -900.612905  0.000952 -7.089162  0.000278
   scf:   12     -900.543593     -900.543593     -900.612905  0.000048 -7.089139  0.000333

SCF Convergence by DM+H criterion
max |DM_out - DM_in|         :     0.0000478980
max |H_out - H_in|      (eV) :     0.0003327097
SCF cycle converged after 12 iterations

Using DM_out to compute the final energy and forces
No. of atoms with KB's overlaping orbs in proc 0. Max # of overlaps:       4      34

siesta: E_KS(eV) =             -900.5436

siesta: Atomic forces (eV/Ang):
----------------------------------------
   Tot   -0.000532    0.008188   -0.000746
----------------------------------------
   Max    1.936943
   Res    1.003862    sqrt( Sum f_i^2 / 3N )
----------------------------------------
   Max    1.936943    constrained

Stress tensor Voigt[x,y,z,yz,xz,xy] (kbar):      -68.21       -1.79        0.01        0.07       -0.15        6.10
(Free)E + p*V (eV/cell)     -886.0516
Target enthalpy (eV/cell)     -900.6129

siesta: Stress tensor (static) (eV/Ang**3):
         0.002029    0.001666   -0.000022
         0.001666    0.000844   -0.000008
        -0.000022   -0.000008    0.000006

siesta: Pressure (static):         -1.53785553  kBar

siesta: Stress tensor (total) (eV/Ang**3):
        -0.042573    0.003805   -0.000097
         0.003805   -0.001115    0.000044
        -0.000097    0.000044    0.000004

siesta: Pressure (total):         23.33010819  kBar

siesta: Temp_ion =   60504.563 K

                     ====================================
                        Begin MD step =      6
                     ====================================

outcell: Unit cell vectors (Ang):
       10.000000    0.000000    0.000000
        0.000000   10.000000    0.000000
        0.000000    0.000000   10.000000

outcell: Cell vector modules (Ang)   :   10.000000   10.000000   10.000000
outcell: Cell angles (23,13,12) (deg):     90.0000     90.0000     90.0000
outcell: Cell volume (Ang**3)        :   1000.0000
Gamma-point calculation with multiply-connected orbital pairs
Folding of H and S implicitly performed
<dSpData1D:S at geom step 6
  <sparsity:sparsity for geom step 6
    nrows_g=36 nrows=36 sparsity=.9784 nnzs=1268, refcount: 7>
  <dData1D:(new from dSpData1D) n=1268, refcount: 1>
refcount: 1>
new_DM -- step:     6
Re-using DM from previous geometries...
Number of DMs in history: 1
 DM extrapolation coefficients: 
1   1.00000
New DM after history re-use:
<dSpData2D:SpM extrapolated using coords
  <sparsity:sparsity for geom step 6
    nrows_g=36 nrows=36 sparsity=.9784 nnzs=1268, refcount: 9>
  <dData2D:(temp array for extrapolation) n=1268 m=1, refcount: 1>
refcount: 1>
Note: For starting DM, Qtot, Tr[D*S] =         14.00000000         14.02277326
No. of atoms with KB's overlaping orbs in proc 0. Max # of overlaps:       4      34
New grid distribution:   1
           1       1:   45    1:   45    1:   45

InitMesh: MESH =    90 x    90 x    90 =      729000
InitMesh: (bp) =    45 x    45 x    45 =       91125
InitMesh: Mesh cutoff (required, used) =   200.000   223.865 Ry
ExtMesh (bp) on 0 =   117 x   117 x   117 =     1601613
PhiOnMesh: Number of (b)points on node 0 =                91125
PhiOnMesh: nlist on node 0 =               451255

        iscf     Eharris(eV)        E_KS(eV)     FreeEng(eV)     dDmax    Ef(eV) dHmax(eV)
   scf:    1     -900.604993     -900.504286     -900.573566  0.167564 -7.294494  0.409385
   scf:    2     -900.310807     -900.445167     -900.509226  0.245741 -6.975771  0.601100
   scf:    3     -900.528086     -900.499066     -900.567665  0.141219 -7.131718  0.203775
   scf:    4     -900.493283     -900.505127     -900.574279  0.113389 -7.110860  0.053481
   scf:    5     -900.498582     -900.502181     -900.571082  0.021890 -7.114887  0.063147
   scf:    6     -900.492060     -900.504563     -900.573624  0.104230 -7.097208  0.050087
   scf:    7     -900.483133     -900.501696     -900.570556  0.106820 -7.087697  0.100605
   scf:    8     -900.507413     -900.507213     -900.576528  0.062291 -7.100046  0.002090
   scf:    9     -900.507215     -900.507214     -900.576529  0.000849 -7.100073  0.001773
   scf:   10     -900.507215     -900.507215     -900.576529  0.001039 -7.099654  0.000294
   scf:   11     -900.507215     -900.507215     -900.576529  0.000082 -7.099654  0.000278

SCF Convergence by DM+H criterion
max |DM_out - DM_in|         :     0.0000821599
max |H_out - H_in|      (eV) :     0.0002782038
SCF cycle converged after 11 iterations

Using DM_out to compute the final energy and forces
No. of atoms with KB's overlaping orbs in proc 0. Max # of overlaps:       4      34

siesta: E_KS(eV) =             -900.5072

siesta: Atomic forces (eV/Ang):
----------------------------------------
   Tot   -0.004213    0.009159    0.000128
----------------------------------------
   Max    1.874510
   Res    1.242188    sqrt( Sum f_i^2 / 3N )
----------------------------------------
   Max    1.874510    constrained

Stress tensor Voigt[x,y,z,yz,xz,xy] (kbar):      -68.56       -2.96        0.01        0.10       -0.16        6.55
(Free)E + p*V (eV/cell)     -885.6970
Target enthalpy (eV/cell)     -900.5765

siesta: Stress tensor (static) (eV/Ang**3):
         0.001893    0.001921   -0.000027
         0.001921    0.000048    0.000009
        -0.000027    0.000009    0.000006

siesta: Pressure (static):         -1.03933567  kBar

siesta: Stress tensor (total) (eV/Ang**3):
        -0.042794    0.004089   -0.000102
         0.004089   -0.001849    0.000060
        -0.000102    0.000060    0.000004

siesta: Pressure (total):         23.83991375  kBar

siesta: Temp_ion =   60432.021 K

                     ====================================
                        Begin MD step =      7
                     ====================================

outcell: Unit cell vectors (Ang):
       10.000000    0.000000    0.000000
        0.000000   10.000000    0.000000
        0.000000    0.000000   10.000000

outcell: Cell vector modules (Ang)   :   10.000000   10.000000   10.000000
outcell: Cell angles (23,13,12) (deg):     90.0000     90.0000     90.0000
outcell: Cell volume (Ang**3)        :   1000.0000
Gamma-point calculation with multiply-connected orbital pairs
Folding of H and S implicitly performed
<dSpData1D:S at geom step 7
  <sparsity:sparsity for geom step 7
    nrows_g=36 nrows=36 sparsity=.9784 nnzs=1268, refcount: 7>
  <dData1D:(new from dSpData1D) n=1268, refcount: 1>
refcount: 1>
new_DM -- step:     7
Re-using DM from previous geometries...
Number of DMs in history: 1
 DM extrapolation coefficients: 
1   1.00000
New DM after history re-use:
<dSpData2D:SpM extrapolated using coords
  <sparsity:sparsity for geom step 7
    nrows_g=36 nrows=36 sparsity=.9784 nnzs=1268, refcount: 9>
  <dData2D:(temp array for extrapolation) n=1268 m=1, refcount: 1>
refcount: 1>
No. of atoms with KB's overlaping orbs in proc 0. Max # of overlaps:       4      34
New grid distribution:   1
           1       1:   45    1:   45    1:   45

InitMesh: MESH =    90 x    90 x    90 =      729000
InitMesh: (bp) =    45 x    45 x    45 =       91125
InitMesh: Mesh cutoff (required, used) =   200.000   223.865 Ry
ExtMesh (bp) on 0 =   117 x   117 x   117 =     1601613
PhiOnMesh: Number of (b)points on node 0 =                91125
PhiOnMesh: nlist on node 0 =               451405

        iscf     Eharris(eV)        E_KS(eV)     FreeEng(eV)     dDmax    Ef(eV) dHmax(eV)
   scf:    1     -900.467988     -900.518847     -900.588117  0.063759 -7.053889  0.113683
   scf:    2     -900.314081     -900.454956     -900.518512  0.237682 -7.120501  0.406676
   scf:    3     -900.534383     -900.518137     -900.587324  0.185280 -7.071393  0.079862
   scf:    4     -900.513536     -900.518414     -900.587629  0.062538 -7.097778  0.042484
   scf:    5     -900.519772     -900.519198     -900.588480  0.012518 -7.094241  0.029169
   scf:    6     -900.519692     -900.519494     -900.588801  0.007999 -7.096765  0.014597
   scf:    7     -900.518465     -900.519062     -900.588331  0.010942 -7.096222  0.019729
   scf:    8     -900.519552     -900.519609     -900.588923  0.021373 -7.093057  0.001846
   scf:    9     -900.519610     -900.519610     -900.588925  0.001163 -7.093049  0.001294
   scf:   10     -900.519610     -900.519610     -900.588925  0.000771 -7.093790  0.000091
   scf:   11     -900.519610     -900.519610     -900.588925  0.000022 -7.093766  0.000089

SCF Convergence by DM+H criterion
max |DM_out - DM_in|         :     0.0000219012
max |H_out - H_in|      (eV) :     0.0000891181
SCF cycle converged after 11 iterations

Using DM_out to compute the final energy and forces
No. of atoms with KB's overlaping orbs in proc 0. Max # of overlaps:       4      34

siesta: E_KS(eV) =             -900.5196

siesta: Atomic forces (eV/Ang):
----------------------------------------
   Tot    0.006775    0.008700    0.000623
----------------------------------------
   Max    1.762548
   Res    1.165576    sqrt( Sum f_i^2 / 3N )
----------------------------------------
   Max    1.762548    constrained

Stress tensor Voigt[x,y,z,yz,xz,xy] (kbar):      -69.02       -2.39        0.01        0.09       -0.17        6.57
(Free)E + p*V (eV/cell)     -885.7329
Target enthalpy (eV/cell)     -900.5889

siesta: Stress tensor (static) (eV/Ang**3):
         0.001718    0.001888   -0.000028
         0.001888    0.000237    0.000008
        -0.000028    0.000008    0.000006

siesta: Pressure (static):         -1.04711217  kBar

siesta: Stress tensor (total) (eV/Ang**3):
        -0.043077    0.004102   -0.000105
         0.004102   -0.001495    0.000058
        -0.000105    0.000058    0.000004

siesta: Pressure (total):         23.80230828  kBar

siesta: Temp_ion =   60458.569 K

                     ====================================
                        Begin MD step =      8
                     ====================================

outcell: Unit cell vectors (Ang):
       10.000000    0.000000    0.000000
        0.000000   10.000000    0.000000
        0.000000    0.000000   10.000000

outcell: Cell vector modules (Ang)   :   10.000000   10.000000   10.000000
outcell: Cell angles (23,13,12) (deg):     90.0000     90.0000     90.0000
outcell: Cell volume (Ang**3)        :   1000.0000
Gamma-point calculation with multiply-connected orbital pairs
Folding of H and S implicitly performed
<dSpData1D:S at geom step 8
  <sparsity:sparsity for geom step 8
    nrows_g=36 nrows=36 sparsity=.9784 nnzs=1268, refcount: 7>
  <dData1D:(new from dSpData1D) n=1268, refcount: 1>
refcount: 1>
new_DM -- step:     8
Re-using DM from previous geometries...
Number of DMs in history: 1
 DM extrapolation coefficients: 
1   1.00000
New DM after history re-use:
<dSpData2D:SpM extrapolated using coords
  <sparsity:sparsity for geom step 8
    nrows_g=36 nrows=36 sparsity=.9784 nnzs=1268, refcount: 9>
  <dData2D:(temp array for extrapolation) n=1268 m=1, refcount: 1>
refcount: 1>
Note: For starting DM, Qtot, Tr[D*S] =         14.00000000         13.97282590
No. of atoms with KB's overlaping orbs in proc 0. Max # of overlaps:       4      34
New grid distribution:   1
           1       1:   45    1:   45    1:   45

InitMesh: MESH =    90 x    90 x    90 =      729000
InitMesh: (bp) =    45 x    45 x    45 =       91125
InitMesh: Mesh cutoff (required, used) =   200.000   223.865 Ry
ExtMesh (bp) on 0 =   117 x   117 x   117 =     1601613
PhiOnMesh: Number of (b)points on node 0 =                91125
PhiOnMesh: nlist on node 0 =               451063

        iscf     Eharris(eV)        E_KS(eV)     FreeEng(eV)     dDmax    Ef(eV) dHmax(eV)
   scf:    1     -900.353702     -900.556147     -900.625393  0.183524 -6.815002  0.545314
   scf:    2     -900.248327     -900.462527     -900.523752  0.287843 -7.240897  0.932907
   scf:    3     -900.594574     -900.548260     -900.616496  0.164148 -7.030486  0.223205
   scf:    4     -900.537203     -900.557555     -900.626549  0.148085 -7.072638  0.070067
   scf:    5     -900.541283     -900.550370     -900.618730  0.037730 -7.081796  0.104167
   scf:    6     -900.538816     -900.557844     -900.626855  0.140606 -7.065096  0.062005
   scf:    7     -900.541617     -900.550704     -900.619086  0.037870 -7.070098  0.118760
   scf:    8     -900.560967     -900.561306     -900.630620  0.089423 -7.073512  0.003336
   scf:    9     -900.561309     -900.561308     -900.630622  0.000537 -7.073529  0.002766
   scf:   10     -900.561310     -900.561309     -900.630624  0.001575 -7.075373  0.000691
   scf:   11     -900.561309     -900.561309     -900.630624  0.000517 -7.075464  0.000153
   scf:   12     -900.561309     -900.561309     -900.630624  0.000013 -7.075470  0.000150

SCF Convergence by DM+H criterion
max |DM_out - DM_in|         :     0.0000129027
max |H_out - H_in|      (eV) :     0.0001496529
SCF cycle converged after 12 iterations

Using DM_out to compute the final energy and forces
No. of atoms with KB's overlaping orbs in proc 0. Max # of overlaps:       4      34

siesta: E_KS(eV) =             -900.5613

siesta: Atomic forces (eV/Ang):
----------------------------------------
   Tot    0.012035   -0.001073   -0.000146
----------------------------------------
   Max    1.600092
   Res    0.874142    sqrt( Sum f_i^2 / 3N )
----------------------------------------
   Max    1.600092    constrained

Stress tensor Voigt[x,y,z,yz,xz,xy] (kbar):      -69.38       -0.70        0.01        0.06       -0.16        6.00
(Free)E + p*V (eV/cell)     -886.0518
Target enthalpy (eV/cell)     -900.6306

siesta: Stress tensor (static) (eV/Ang**3):
         0.001624    0.001457   -0.000019
         0.001457    0.001183   -0.000014
        -0.000019   -0.000014    0.000007

siesta: Pressure (static):         -1.50224511  kBar

siesta: Stress tensor (total) (eV/Ang**3):
        -0.043302    0.003744   -0.000099
         0.003744   -0.000439    0.000037
        -0.000099    0.000037    0.000005

siesta: Pressure (total):         23.35809175  kBar

siesta: Temp_ion =   60546.533 K

                     ====================================
                        Begin MD step =      9
                     ====================================

outcell: Unit cell vectors (Ang):
       10.000000    0.000000    0.000000
        0.000000   10.000000    0.000000
        0.000000    0.000000   10.000000

outcell: Cell vector modules (Ang)   :   10.000000   10.000000   10.000000
outcell: Cell angles (23,13,12) (deg):     90.0000     90.0000     90.0000
outcell: Cell volume (Ang**3)        :   1000.0000
Gamma-point calculation with multiply-connected orbital pairs
Folding of H and S implicitly performed
<dSpData1D:S at geom step 9
  <sparsity:sparsity for geom step 9
    nrows_g=36 nrows=36 sparsity=.9583 nnzs=1242, refcount: 7>
  <dData1D:(new from dSpData1D) n=1242, refcount: 1>
refcount: 1>
new_DM -- step:     9
Re-using DM from previous geometries...
Number of DMs in history: 1
 DM extrapolation coefficients: 
1   1.00000
New DM after history re-use:
<dSpData2D:SpM extrapolated using coords
  <sparsity:sparsity for geom step 9
    nrows_g=36 nrows=36 sparsity=.9583 nnzs=1242, refcount: 9>
  <dData2D:(temp array for extrapolation) n=1242 m=1, refcount: 1>
refcount: 1>
Note: For starting DM, Qtot, Tr[D*S] =         14.00000000         13.96995306
No. of atoms with KB's overlaping orbs in proc 0. Max # of overlaps:       4      30
New grid distribution:   1
           1       1:   45    1:   45    1:   45

InitMesh: MESH =    90 x    90 x    90 =      729000
InitMesh: (bp) =    45 x    45 x    45 =       91125
InitMesh: Mesh cutoff (required, used) =   200.000   223.865 Ry
ExtMesh (bp) on 0 =   117 x   117 x   117 =     1601613
PhiOnMesh: Number of (b)points on node 0 =                91125
PhiOnMesh: nlist on node 0 =               451121

        iscf     Eharris(eV)        E_KS(eV)     FreeEng(eV)     dDmax    Ef(eV) dHmax(eV)
   scf:    1     -900.285702     -900.541111     -900.610354  0.223540 -6.751641  0.601195
   scf:    2     -900.234816     -900.448660     -900.509836  0.293693 -7.234483  0.927127
   scf:    3     -900.580160     -900.532554     -900.600631  0.159476 -7.010053  0.195083
   scf:    4     -900.525011     -900.544188     -900.613224  0.151297 -7.043060  0.080360
   scf:    5     -900.525473     -900.536087     -900.604404  0.043439 -7.050811  0.098795
   scf:    6     -900.500570     -900.538421     -900.606957  0.173826 -7.035919  0.098754
   scf:    7     -900.410571     -900.486119     -900.549982  0.131782 -7.058914  0.306785
   scf:    8     -900.539989     -900.547207     -900.616503  0.225087 -7.045535  0.015034
   scf:    9     -900.547432     -900.547402     -900.616716  0.011042 -7.045499  0.003705
   scf:   10     -900.546993     -900.547257     -900.616557  0.009523 -7.048977  0.009131
   scf:   11     -900.547416     -900.547403     -900.616717  0.010029 -7.048207  0.000788
   scf:   12     -900.547403     -900.547403     -900.616718  0.000563 -7.048012  0.000213
   scf:   13     -900.547403     -900.547403     -900.616718  0.000081 -7.048055  0.000255

SCF Convergence by DM+H criterion
max |DM_out - DM_in|         :     0.0000812037
max |H_out - H_in|      (eV) :     0.0002552524
SCF cycle converged after 13 iterations

Using DM_out to compute the final energy and forces
No. of atoms with KB's overlaping orbs in proc 0. Max # of overlaps:       4      30

siesta: E_KS(eV) =             -900.5474

siesta: Atomic forces (eV/Ang):
----------------------------------------
   Tot    0.007623    0.005279    0.000822
----------------------------------------
   Max    1.388778
   Res    0.909377    sqrt( Sum f_i^2 / 3N )
----------------------------------------
   Max    1.388778    constrained

Stress tensor Voigt[x,y,z,yz,xz,xy] (kbar):      -69.67        0.63        0.01        0.02       -0.14        5.19
(Free)E + p*V (eV/cell)     -886.2549
Target enthalpy (eV/cell)     -900.6167

siesta: Stress tensor (static) (eV/Ang**3):
         0.001554    0.000907   -0.000006
         0.000907    0.001970   -0.000037
        -0.000006   -0.000037    0.000007

siesta: Pressure (static):         -1.88610796  kBar

siesta: Stress tensor (total) (eV/Ang**3):
        -0.043487    0.003241   -0.000088
         0.003241    0.000396    0.000015
        -0.000088    0.000015    0.000005

siesta: Pressure (total):         23.01039965  kBar

siesta: Temp_ion =   60517.904 K

                     ====================================
                        Begin MD step =     10
                     ====================================

outcell: Unit cell vectors (Ang):
       10.000000    0.000000    0.000000
        0.000000   10.000000    0.000000
        0.000000    0.000000   10.000000

outcell: Cell vector modules (Ang)   :   10.000000   10.000000   10.000000
outcell: Cell angles (23,13,12) (deg):     90.0000     90.0000     90.0000
outcell: Cell volume (Ang**3)        :   1000.0000
Gamma-point calculation with multiply-connected orbital pairs
Folding of H and S implicitly performed
<dSpData1D:S at geom step 10
  <sparsity:sparsity for geom step 10
    nrows_g=36 nrows=36 sparsity=.9568 nnzs=1240, refcount: 7>
  <dData1D:(new from dSpData1D) n=1240, refcount: 1>
refcount: 1>
new_DM -- step:    10
Re-using DM from previous geometries...
Number of DMs in history: 1
 DM extrapolation coefficients: 
1   1.00000
New DM after history re-use:
<dSpData2D:SpM extrapolated using coords
  <sparsity:sparsity for geom step 10
    nrows_g=36 nrows=36 sparsity=.9568 nnzs=1240, refcount: 9>
  <dData2D:(temp array for extrapolation) n=1240 m=1, refcount: 1>
refcount: 1>
Note: For starting DM, Qtot, Tr[D*S] =         14.00000000         13.98525030
No. of atoms with KB's overlaping orbs in proc 0. Max # of overlaps:       4      30
New grid distribution:   1
           1       1:   45    1:   45    1:   45

InitMesh: MESH =    90 x    90 x    90 =      729000
InitMesh: (bp) =    45 x    45 x    45 =       91125
InitMesh: Mesh cutoff (required, used) =   200.000   223.865 Ry
ExtMesh (bp) on 0 =   117 x   117 x   117 =     1601613
PhiOnMesh: Number of (b)points on node 0 =                91125
PhiOnMesh: nlist on node 0 =               451225

        iscf     Eharris(eV)        E_KS(eV)     FreeEng(eV)     dDmax    Ef(eV) dHmax(eV)
   scf:    1     -900.319245     -900.521269     -900.590550  0.173540 -6.849351  0.331060
   scf:    2     -900.386230     -900.480094     -900.545765  0.199932 -7.115975  0.507709
   scf:    3     -900.537759     -900.517015     -900.585789  0.110648 -6.994754  0.097006
   scf:    4     -900.520277     -900.523174     -900.592465  0.082689 -7.010622  0.045695
   scf:    5     -900.521594     -900.522492     -900.591720  0.012901 -7.013605  0.051987
   scf:    6     -900.523750     -900.523305     -900.592605  0.016550 -7.013641  0.034802
   scf:    7     -900.522878     -900.523122     -900.592403  0.016124 -7.009170  0.026967
   scf:    8     -900.523468     -900.523466     -900.592781  0.016131 -7.011082  0.003489
   scf:    9     -900.523466     -900.523466     -900.592781  0.000617 -7.011849  0.001969
   scf:   10     -900.523467     -900.523467     -900.592781  0.002293 -7.013312  0.000204
   scf:   11     -900.523467     -900.523467     -900.592781  0.000048 -7.013377  0.000163

SCF Convergence by DM+H criterion
max |DM_out - DM_in|         :     0.0000476730
max |H_out - H_in|      (eV) :     0.0001634864
SCF cycle converged after 11 iterations

Using DM_out to compute the final energy and forces
No. of atoms with KB's overlaping orbs in proc 0. Max # of overlaps:       4      30

siesta: E_KS(eV) =             -900.5235

siesta: Atomic forces (eV/Ang):
----------------------------------------
   Tot    0.007391    0.002223    0.001262
----------------------------------------
   Max    1.553947
   Res    0.963866    sqrt( Sum f_i^2 / 3N )
----------------------------------------
   Max    1.553947    constrained

Stress tensor Voigt[x,y,z,yz,xz,xy] (kbar):      -70.00        1.14        0.01        0.00       -0.12        4.46
(Free)E + p*V (eV/cell)     -886.2665
Target enthalpy (eV/cell)     -900.5928

siesta: Stress tensor (static) (eV/Ang**3):
         0.001410    0.000479    0.000004
         0.000479    0.002199   -0.000048
         0.000004   -0.000048    0.000008

siesta: Pressure (static):         -1.93130490  kBar

siesta: Stress tensor (total) (eV/Ang**3):
        -0.043693    0.002781   -0.000077
         0.002781    0.000709    0.000002
        -0.000077    0.000002    0.000006

siesta: Pressure (total):         22.95343047  kBar

siesta: Temp_ion =   60463.869 K

                     ====================================
                        Begin MD step =     11
                     ====================================

outcell: Unit cell vectors (Ang):
       10.000000    0.000000    0.000000
        0.000000   10.000000    0.000000
        0.000000    0.000000   10.000000

outcell: Cell vector modules (Ang)   :   10.000000   10.000000   10.000000
outcell: Cell angles (23,13,12) (deg):     90.0000     90.0000     90.0000
outcell: Cell volume (Ang**3)        :   1000.0000
Gamma-point calculation with multiply-connected orbital pairs
Folding of H and S implicitly performed
<dSpData1D:S at geom step 11
  <sparsity:sparsity for geom step 11
    nrows_g=36 nrows=36 sparsity=.9568 nnzs=1240, refcount: 7>
  <dData1D:(new from dSpData1D) n=1240, refcount: 1>
refcount: 1>
new_DM -- step:    11
Re-using DM from previous geometries...
Number of DMs in history: 1
 DM extrapolation coefficients: 
1   1.00000
New DM after history re-use:
<dSpData2D:SpM extrapolated using coords
  <sparsity:sparsity for geom step 11
    nrows_g=36 nrows=36 sparsity=.9568 nnzs=1240, refcount: 9>
  <dData2D:(temp array for extrapolation) n=1240 m=1, refcount: 1>
refcount: 1>
No. of atoms with KB's overlaping orbs in proc 0. Max # of overlaps:       4      30
New grid distribution:   1
           1       1:   45    1:   45    1:   45

InitMesh: MESH =    90 x    90 x    90 =      729000
InitMesh: (bp) =    45 x    45 x    45 =       91125
InitMesh: Mesh cutoff (required, used) =   200.000   223.865 Ry
ExtMesh (bp) on 0 =   117 x   117 x   117 =     1601613
PhiOnMesh: Number of (b)points on node 0 =                91125
PhiOnMesh: nlist on node 0 =               451046

        iscf     Eharris(eV)        E_KS(eV)     FreeEng(eV)     dDmax    Ef(eV) dHmax(eV)
   scf:    1     -900.445461     -900.545278     -900.614590  0.100488 -7.020733  0.090875
   scf:    2     -900.538829     -900.543449     -900.612586  0.108548 -6.946357  0.092804
   scf:    3     -900.546372     -900.545290     -900.614575  0.044314 -6.976577  0.025955
   scf:    4     -900.545563     -900.545667     -900.614981  0.018817 -6.973942  0.010764
   scf:    5     -900.545677     -900.545679     -900.614993  0.003489 -6.972900  0.008735
   scf:    6     -900.545679     -900.545679     -900.614993  0.000046 -6.972938  0.008670
   scf:    7     -900.545684     -900.545682     -900.614997  0.001727 -6.973612  0.001750
   scf:    8     -900.545682     -900.545682     -900.614996  0.001196 -6.973721  0.001647
   scf:    9     -900.545682     -900.545682     -900.614997  0.000509 -6.973014  0.000060
   scf:   10     -900.545682     -900.545682     -900.614997  0.000015 -6.973014  0.000060

SCF Convergence by DM+H criterion
max |DM_out - DM_in|         :     0.0000148476
max |H_out - H_in|      (eV) :     0.0000601689
SCF cycle converged after 10 iterations

Using DM_out to compute the final energy and forces
No. of atoms with KB's overlaping orbs in proc 0. Max # of overlaps:       4      30

siesta: E_KS(eV) =             -900.5457

siesta: Atomic forces (eV/Ang):
----------------------------------------
   Tot    0.000634    0.001216   -0.000949
----------------------------------------
   Max    1.336100
   Res    0.805415    sqrt( Sum f_i^2 / 3N )
----------------------------------------
   Max    1.336100    constrained

Stress tensor Voigt[x,y,z,yz,xz,xy] (kbar):      -70.50        0.63        0.01        0.01       -0.11        4.03
(Free)E + p*V (eV/cell)     -886.0807
Target enthalpy (eV/cell)     -900.6150

siesta: Stress tensor (static) (eV/Ang**3):
         0.001126    0.000281    0.000007
         0.000281    0.001818   -0.000042
         0.000007   -0.000042    0.000007

siesta: Pressure (static):         -1.57578767  kBar

siesta: Stress tensor (total) (eV/Ang**3):
        -0.044000    0.002518   -0.000071
         0.002518    0.000392    0.000005
        -0.000071    0.000005    0.000005

siesta: Pressure (total):         23.28672878  kBar

siesta: Temp_ion =   60515.989 K

                     ====================================
                        Begin MD step =     12
                     ====================================

outcell: Unit cell vectors (Ang):
       10.000000    0.000000    0.000000
        0.000000   10.000000    0.000000
        0.000000    0.000000   10.000000

outcell: Cell vector modules (Ang)   :   10.000000   10.000000   10.000000
outcell: Cell angles (23,13,12) (deg):     90.0000     90.0000     90.0000
outcell: Cell volume (Ang**3)        :   1000.0000
Gamma-point calculation with multiply-connected orbital pairs
Folding of H and S implicitly performed
<dSpData1D:S at geom step 12
  <sparsity:sparsity for geom step 12
    nrows_g=36 nrows=36 sparsity=.9336 nnzs=1210, refcount: 7>
  <dData1D:(new from dSpData1D) n=1210, refcount: 1>
refcount: 1>
new_DM -- step:    12
Re-using DM from previous geometries...
Number of DMs in history: 1
 DM extrapolation coefficients: 
1   1.00000
New DM after history re-use:
<dSpData2D:SpM extrapolated using coords
  <sparsity:sparsity for geom step 12
    nrows_g=36 nrows=36 sparsity=.9336 nnzs=1210, refcount: 9>
  <dData2D:(temp array for extrapolation) n=1210 m=1, refcount: 1>
refcount: 1>
Note: For starting DM, Qtot, Tr[D*S] =         14.00000000         14.02921459
No. of atoms with KB's overlaping orbs in proc 0. Max # of overlaps:       4      30
New grid distribution:   1
           1       1:   45    1:   45    1:   45

InitMesh: MESH =    90 x    90 x    90 =      729000
InitMesh: (bp) =    45 x    45 x    45 =       91125
InitMesh: Mesh cutoff (required, used) =   200.000   223.865 Ry
ExtMesh (bp) on 0 =   117 x   117 x   117 =     1601613
PhiOnMesh: Number of (b)points on node 0 =                91125
PhiOnMesh: nlist on node 0 =               451267

        iscf     Eharris(eV)        E_KS(eV)     FreeEng(eV)     dDmax    Ef(eV) dHmax(eV)
   scf:    1     -900.572135     -900.586293     -900.655607  0.117749 -7.168051  0.433093
   scf:    2     -900.577901     -900.585490     -900.654650  0.325846 -6.789557  0.388686
   scf:    3     -900.591266     -900.589062     -900.658347  0.134007 -6.941961  0.068750
   scf:    4     -900.588362     -900.589227     -900.658526  0.028044 -6.934317  0.056121
   scf:    5     -900.589534     -900.589428     -900.658742  0.009154 -6.942952  0.055927
   scf:    6     -900.588988     -900.589241     -900.658552  0.038931 -6.894343  0.094761
   scf:    7     -900.589477     -900.589464     -900.658778  0.044681 -6.938728  0.022828
   scf:    8     -900.589465     -900.589465     -900.658779  0.003819 -6.933928  0.014088
   scf:    9     -900.589475     -900.589475     -900.658789  0.002630 -6.928995  0.000273
   scf:   10     -900.589475     -900.589475     -900.658789  0.000010 -6.928996  0.000267

SCF Convergence by DM+H criterion
max |DM_out - DM_in|         :     0.0000103615
max |H_out - H_in|      (eV) :     0.0002667423
SCF cycle converged after 10 iterations

Using DM_out to compute the final energy and forces
No. of atoms with KB's overlaping orbs in proc 0. Max # of overlaps:       4      30

siesta: E_KS(eV) =             -900.5895

siesta: Atomic forces (eV/Ang):
----------------------------------------
   Tot   -0.010135    0.008697    0.000118
----------------------------------------
   Max    0.646734
   Res    0.412413    sqrt( Sum f_i^2 / 3N )
----------------------------------------
   Max    0.646734    constrained

Stress tensor Voigt[x,y,z,yz,xz,xy] (kbar):      -71.27       -0.81        0.01        0.04       -0.12        4.10
(Free)E + p*V (eV/cell)     -885.6639
Target enthalpy (eV/cell)     -900.6588

siesta: Stress tensor (static) (eV/Ang**3):
         0.000662    0.000355   -0.000000
         0.000355    0.000940   -0.000019
        -0.000000   -0.000019    0.000007

siesta: Pressure (static):         -0.85927974  kBar

siesta: Stress tensor (total) (eV/Ang**3):
        -0.044483    0.002558   -0.000076
         0.002558   -0.000506    0.000027
        -0.000076    0.000027    0.000005

siesta: Pressure (total):         24.02466822  kBar

siesta: Temp_ion =   60616.858 K

                     ====================================
                        Begin MD step =     13
                     ====================================

outcell: Unit cell vectors (Ang):
       10.000000    0.000000    0.000000
        0.000000   10.000000    0.000000
        0.000000    0.000000   10.000000

outcell: Cell vector modules (Ang)   :   10.000000   10.000000   10.000000
outcell: Cell angles (23,13,12) (deg):     90.0000     90.0000     90.0000
outcell: Cell volume (Ang**3)        :   1000.0000
Gamma-point calculation with multiply-connected orbital pairs
Folding of H and S implicitly performed
<dSpData1D:S at geom step 13
  <sparsity:sparsity for geom step 13
    nrows_g=36 nrows=36 sparsity=.9151 nnzs=1186, refcount: 7>
  <dData1D:(new from dSpData1D) n=1186, refcount: 1>
refcount: 1>
new_DM -- step:    13
Re-using DM from previous geometries...
Number of DMs in history: 1
 DM extrapolation coefficients: 
1   1.00000
New DM after history re-use:
<dSpData2D:SpM extrapolated using coords
  <sparsity:sparsity for geom step 13
    nrows_g=36 nrows=36 sparsity=.9151 nnzs=1186, refcount: 9>
  <dData2D:(temp array for extrapolation) n=1186 m=1, refcount: 1>
refcount: 1>
Note: For starting DM, Qtot, Tr[D*S] =         14.00000000         14.03561130
No. of atoms with KB's overlaping orbs in proc 0. Max # of overlaps:       4      26
New grid distribution:   1
           1       1:   45    1:   45    1:   45

InitMesh: MESH =    90 x    90 x    90 =      729000
InitMesh: (bp) =    45 x    45 x    45 =       91125
InitMesh: Mesh cutoff (required, used) =   200.000   223.865 Ry
ExtMesh (bp) on 0 =   117 x   117 x   117 =     1601613
PhiOnMesh: Number of (b)points on node 0 =                91125
PhiOnMesh: nlist on node 0 =               451094

        iscf     Eharris(eV)        E_KS(eV)     FreeEng(eV)     dDmax    Ef(eV) dHmax(eV)
   scf:    1     -900.584494     -900.577493     -900.646806  0.130296 -7.185425  0.537119
   scf:    2     -900.560412     -900.574924     -900.643874  0.397745 -6.709300  0.464924
   scf:    3     -900.585489     -900.581459     -900.650704  0.163131 -6.899601  0.082165
   scf:    4     -900.580861     -900.582022     -900.651321  0.036910 -6.891395  0.069280
   scf:    5     -900.582381     -900.582256     -900.651570  0.013847 -6.905867  0.068945
   scf:    6     -900.581233     -900.581836     -900.651137  0.051438 -6.838758  0.119421
   scf:    7     -900.582311     -900.582290     -900.651604  0.055759 -6.894706  0.023730
   scf:    8     -900.582286     -900.582290     -900.651603  0.005295 -6.888739  0.012108
   scf:    9     -900.582304     -900.582304     -900.651619  0.003354 -6.883935  0.000339
   scf:   10     -900.582304     -900.582304     -900.651619  0.000022 -6.883945  0.000332

SCF Convergence by DM+H criterion
max |DM_out - DM_in|         :     0.0000220049
max |H_out - H_in|      (eV) :     0.0003323621
SCF cycle converged after 10 iterations

Using DM_out to compute the final energy and forces
No. of atoms with KB's overlaping orbs in proc 0. Max # of overlaps:       4      26

siesta: E_KS(eV) =             -900.5823

siesta: Atomic forces (eV/Ang):
----------------------------------------
   Tot   -0.007247   -0.002247    0.002795
----------------------------------------
   Max    0.873700
   Res    0.470561    sqrt( Sum f_i^2 / 3N )
----------------------------------------
   Max    0.873700    constrained

Stress tensor Voigt[x,y,z,yz,xz,xy] (kbar):      -72.32       -2.64        0.01        0.10       -0.15        4.53
(Free)E + p*V (eV/cell)     -885.0587
Target enthalpy (eV/cell)     -900.6516

siesta: Stress tensor (static) (eV/Ang**3):
         0.000039    0.000624   -0.000017
         0.000624   -0.000152    0.000014
        -0.000017    0.000014    0.000005

siesta: Pressure (static):          0.05740940  kBar

siesta: Stress tensor (total) (eV/Ang**3):
        -0.045136    0.002824   -0.000092
         0.002824   -0.001646    0.000061
        -0.000092    0.000061    0.000004

siesta: Pressure (total):         24.98283425  kBar

siesta: Temp_ion =   60603.613 K

                     ====================================
                        Begin MD step =     14
                     ====================================

outcell: Unit cell vectors (Ang):
       10.000000    0.000000    0.000000
        0.000000   10.000000    0.000000
        0.000000    0.000000   10.000000

outcell: Cell vector modules (Ang)   :   10.000000   10.000000   10.000000
outcell: Cell angles (23,13,12) (deg):     90.0000     90.0000     90.0000
outcell: Cell volume (Ang**3)        :   1000.0000
Gamma-point calculation with multiply-connected orbital pairs
Folding of H and S implicitly performed
<dSpData1D:S at geom step 14
  <sparsity:sparsity for geom step 14
    nrows_g=36 nrows=36 sparsity=.9028 nnzs=1170, refcount: 7>
  <dData1D:(new from dSpData1D) n=1170, refcount: 1>
refcount: 1>
new_DM -- step:    14
Re-using DM from previous geometries...
Number of DMs in history: 1
 DM extrapolation coefficients: 
1   1.00000
New DM after history re-use:
<dSpData2D:SpM extrapolated using coords
  <sparsity:sparsity for geom step 14
    nrows_g=36 nrows=36 sparsity=.9028 nnzs=1170, refcount: 9>
  <dData2D:(temp array for extrapolation) n=1170 m=1, refcount: 1>
refcount: 1>
Note: For starting DM, Qtot, Tr[D*S] =         14.00000000         14.01927682
No. of atoms with KB's overlaping orbs in proc 0. Max # of overlaps:       4      26
New grid distribution:   1
           1       1:   45    1:   45    1:   45

InitMesh: MESH =    90 x    90 x    90 =      729000
InitMesh: (bp) =    45 x    45 x    45 =       91125
InitMesh: Mesh cutoff (required, used) =   200.000   223.865 Ry
ExtMesh (bp) on 0 =   117 x   117 x   117 =     1601613
PhiOnMesh: Number of (b)points on node 0 =                91125
PhiOnMesh: nlist on node 0 =               451187

        iscf     Eharris(eV)        E_KS(eV)     FreeEng(eV)     dDmax    Ef(eV) dHmax(eV)
   scf:    1     -900.484620     -900.545931     -900.615245  0.045930 -6.991643  0.268246
   scf:    2     -900.543369     -900.545895     -900.615155  0.228425 -6.754416  0.217320
   scf:    3     -900.547926     -900.547151     -900.616455  0.092149 -6.848745  0.039156
   scf:    4     -900.546911     -900.547204     -900.616514  0.016716 -6.845468  0.032339
   scf:    5     -900.547219     -900.547275     -900.616589  0.011551 -6.855813  0.027135
   scf:    6     -900.547052     -900.547212     -900.616524  0.031340 -6.823050  0.048318
   scf:    7     -900.547241     -900.547279     -900.616593  0.028834 -6.849547  0.019819
   scf:    8     -900.547297     -900.547289     -900.616604  0.004422 -6.843852  0.007411
   scf:    9     -900.547292     -900.547292     -900.616606  0.001346 -6.840975  0.000157
   scf:   10     -900.547292     -900.547292     -900.616606  0.000005 -6.840974  0.000154

SCF Convergence by DM+H criterion
max |DM_out - DM_in|         :     0.0000050417
[...]
   scf:    8     -900.585001     -900.585008     -900.654323  0.003912 -6.840659  0.020536
   scf:    9     -900.585021     -900.585020     -900.654334  0.005830 -6.833570  0.000347
   scf:   10     -900.585020     -900.585020     -900.654334  0.000090 -6.833590  0.000271

SCF Convergence by DM+H criterion
max |DM_out - DM_in|         :     0.0000895121
max |H_out - H_in|      (eV) :     0.0002708766
SCF cycle converged after 10 iterations

Using DM_out to compute the final energy and forces
No. of atoms with KB's overlaping orbs in proc 0. Max # of overlaps:       4      26

siesta: E_KS(eV) =             -900.5850

siesta: Atomic forces (eV/Ang):
----------------------------------------
   Tot    0.002241    0.000355    0.001604
----------------------------------------
   Max    0.990882
   Res    0.404944    sqrt( Sum f_i^2 / 3N )
----------------------------------------
   Max    0.990882    constrained

Stress tensor Voigt[x,y,z,yz,xz,xy] (kbar):      -72.17       -3.69        0.00        0.09       -0.15        2.66
(Free)E + p*V (eV/cell)     -884.8721
Target enthalpy (eV/cell)     -900.6543

siesta: Stress tensor (static) (eV/Ang**3):
        -0.000717   -0.000050   -0.000026
        -0.000050    0.000018   -0.000001
        -0.000026   -0.000001    0.000004

siesta: Pressure (static):          0.37137765  kBar

siesta: Stress tensor (total) (eV/Ang**3):
        -0.045045    0.001660   -0.000092
         0.001660   -0.002304    0.000058
        -0.000092    0.000058    0.000002

siesta: Pressure (total):         25.28627347  kBar

siesta: Temp_ion =   60574.179 K

                     ====================================
                        Begin MD step =     98
                     ====================================

outcell: Unit cell vectors (Ang):
       10.000000    0.000000    0.000000
        0.000000   10.000000    0.000000
        0.000000    0.000000   10.000000

outcell: Cell vector modules (Ang)   :   10.000000   10.000000   10.000000
outcell: Cell angles (23,13,12) (deg):     90.0000     90.0000     90.0000
outcell: Cell volume (Ang**3)        :   1000.0000
Gamma-point calculation with multiply-connected orbital pairs
Folding of H and S implicitly performed
<dSpData1D:S at geom step 98
  <sparsity:sparsity for geom step 98
    nrows_g=36 nrows=36 sparsity=.8796 nnzs=1140, refcount: 7>
  <dData1D:(new from dSpData1D) n=1140, refcount: 1>
refcount: 1>
new_DM -- step:    98
Re-using DM from previous geometries...
Number of DMs in history: 1
 DM extrapolation coefficients: 
1   1.00000
New DM after history re-use:
<dSpData2D:SpM extrapolated using coords
  <sparsity:sparsity for geom step 98
    nrows_g=36 nrows=36 sparsity=.8796 nnzs=1140, refcount: 9>
  <dData2D:(temp array for extrapolation) n=1140 m=1, refcount: 1>
refcount: 1>
No. of atoms with KB's overlaping orbs in proc 0. Max # of overlaps:       4      26
New grid distribution:   1
           1       1:   45    1:   45    1:   45

InitMesh: MESH =    90 x    90 x    90 =      729000
InitMesh: (bp) =    45 x    45 x    45 =       91125
InitMesh: Mesh cutoff (required, used) =   200.000   223.865 Ry
ExtMesh (bp) on 0 =   117 x   117 x   117 =     1601613
PhiOnMesh: Number of (b)points on node 0 =                91125
PhiOnMesh: nlist on node 0 =               451145

        iscf     Eharris(eV)        E_KS(eV)     FreeEng(eV)     dDmax    Ef(eV) dHmax(eV)
   scf:    1     -900.770904     -900.545540     -900.614852  0.175601 -7.051552  0.336136
   scf:    2     -900.531790     -900.542322     -900.611325  0.133263 -6.775533  0.330417
   scf:    3     -900.549395     -900.546709     -900.615968  0.054353 -6.886029  0.057540
   scf:    4     -900.546302     -900.547271     -900.616569  0.028246 -6.881530  0.040217
   scf:    5     -900.547372     -900.547451     -900.616765  0.011736 -6.885105  0.036470
   scf:    6     -900.546751     -900.547239     -900.616537  0.012508 -6.863102  0.058452
   scf:    7     -900.547459     -900.547473     -900.616788  0.018876 -6.879994  0.005699
   scf:    8     -900.547463     -900.547469     -900.616783  0.001096 -6.879190  0.006023
   scf:    9     -900.547474     -900.547475     -900.616789  0.002117 -6.877243  0.000655
   scf:   10     -900.547475     -900.547475     -900.616790  0.000146 -6.877179  0.000547

SCF Convergence by DM+H criterion
max |DM_out - DM_in|         :     0.0001463739
max |H_out - H_in|      (eV) :     0.0005471997
SCF cycle converged after 10 iterations

Using DM_out to compute the final energy and forces
No. of atoms with KB's overlaping orbs in proc 0. Max # of overlaps:       4      26

siesta: E_KS(eV) =             -900.5475

siesta: Atomic forces (eV/Ang):
----------------------------------------
   Tot    0.004981    0.000393    0.005149
----------------------------------------
   Max    2.014533
   Res    0.845109    sqrt( Sum f_i^2 / 3N )
----------------------------------------
   Max    2.014533    constrained

Stress tensor Voigt[x,y,z,yz,xz,xy] (kbar):      -72.41       -3.73        0.00        0.08       -0.19        2.54
(Free)E + p*V (eV/cell)     -884.7775
Target enthalpy (eV/cell)     -900.6168

siesta: Stress tensor (static) (eV/Ang**3):
        -0.000884   -0.000114   -0.000053
        -0.000114    0.000002   -0.000007
        -0.000053   -0.000007    0.000003

siesta: Pressure (static):          0.46974749  kBar

siesta: Stress tensor (total) (eV/Ang**3):
        -0.045192    0.001582   -0.000119
         0.001582   -0.002327    0.000051
        -0.000119    0.000051    0.000001

siesta: Pressure (total):         25.37762272  kBar

siesta: Temp_ion =   60496.747 K

                     ====================================
                        Begin MD step =     99
                     ====================================

outcell: Unit cell vectors (Ang):
       10.000000    0.000000    0.000000
        0.000000   10.000000    0.000000
        0.000000    0.000000   10.000000

outcell: Cell vector modules (Ang)   :   10.000000   10.000000   10.000000
outcell: Cell angles (23,13,12) (deg):     90.0000     90.0000     90.0000
outcell: Cell volume (Ang**3)        :   1000.0000
Gamma-point calculation with multiply-connected orbital pairs
Folding of H and S implicitly performed
<dSpData1D:S at geom step 99
  <sparsity:sparsity for geom step 99
    nrows_g=36 nrows=36 sparsity=.8796 nnzs=1140, refcount: 7>
  <dData1D:(new from dSpData1D) n=1140, refcount: 1>
refcount: 1>
new_DM -- step:    99
Re-using DM from previous geometries...
Number of DMs in history: 1
 DM extrapolation coefficients: 
1   1.00000
New DM after history re-use:
<dSpData2D:SpM extrapolated using coords
  <sparsity:sparsity for geom step 99
    nrows_g=36 nrows=36 sparsity=.8796 nnzs=1140, refcount: 9>
  <dData2D:(temp array for extrapolation) n=1140 m=1, refcount: 1>
refcount: 1>
Note: For starting DM, Qtot, Tr[D*S] =         14.00000000         13.98269430
No. of atoms with KB's overlaping orbs in proc 0. Max # of overlaps:       4      26
New grid distribution:   1
           1       1:   45    1:   45    1:   45

InitMesh: MESH =    90 x    90 x    90 =      729000
InitMesh: (bp) =    45 x    45 x    45 =       91125
InitMesh: Mesh cutoff (required, used) =   200.000   223.865 Ry
ExtMesh (bp) on 0 =   117 x   117 x   117 =     1601613
PhiOnMesh: Number of (b)points on node 0 =                91125
PhiOnMesh: nlist on node 0 =               451160

        iscf     Eharris(eV)        E_KS(eV)     FreeEng(eV)     dDmax    Ef(eV) dHmax(eV)
   scf:    1     -900.662676     -900.569487     -900.638788  0.066240 -6.807588  0.218320
   scf:    2     -900.509386     -900.551207     -900.618903  0.195242 -6.990510  0.320617
   scf:    3     -900.577026     -900.567899     -900.636987  0.089330 -6.905928  0.088196
   scf:    4     -900.569152     -900.570466     -900.639770  0.045803 -6.919076  0.026045
   scf:    5     -900.569513     -900.570356     -900.639650  0.020032 -6.913440  0.024898
   scf:    6     -900.570107     -900.570531     -900.639839  0.018482 -6.924305  0.018292
   scf:    7     -900.570638     -900.570617     -900.639931  0.005870 -6.923499  0.002140
   scf:    8     -900.570618     -900.570617     -900.639932  0.000698 -6.923410  0.002030
   scf:    9     -900.570614     -900.570617     -900.639931  0.001469 -6.923732  0.000837
   scf:   10     -900.570617     -900.570617     -900.639931  0.000357 -6.923746  0.000733
   scf:   11     -900.570618     -900.570618     -900.639933  0.000761 -6.923883  0.000251
   scf:   12     -900.570618     -900.570618     -900.639933  0.000015 -6.923896  0.000211

SCF Convergence by DM+H criterion
max |DM_out - DM_in|         :     0.0000145312
max |H_out - H_in|      (eV) :     0.0002108278
SCF cycle converged after 12 iterations

Using DM_out to compute the final energy and forces
No. of atoms with KB's overlaping orbs in proc 0. Max # of overlaps:       4      26

siesta: E_KS(eV) =             -900.5706

siesta: Atomic forces (eV/Ang):
----------------------------------------
   Tot    0.001233   -0.000968    0.000136
----------------------------------------
   Max    1.234101
   Res    0.603838    sqrt( Sum f_i^2 / 3N )
----------------------------------------
   Max    1.234101    constrained

Stress tensor Voigt[x,y,z,yz,xz,xy] (kbar):      -70.61       -3.72        0.00        0.08       -0.15        2.71
(Free)E + p*V (eV/cell)     -885.1754
Target enthalpy (eV/cell)     -900.6399

siesta: Stress tensor (static) (eV/Ang**3):
         0.000161    0.000042   -0.000031
         0.000042    0.000020   -0.000006
        -0.000031   -0.000006    0.000004

siesta: Pressure (static):         -0.09877793  kBar

siesta: Stress tensor (total) (eV/Ang**3):
        -0.044071    0.001693   -0.000092
         0.001693   -0.002325    0.000050
        -0.000092    0.000050    0.000002

siesta: Pressure (total):         24.77725771  kBar

siesta: Temp_ion =   60539.611 K

                     ====================================
                        Begin MD step =    100
                     ====================================

outcell: Unit cell vectors (Ang):
       10.000000    0.000000    0.000000
        0.000000   10.000000    0.000000
        0.000000    0.000000   10.000000

outcell: Cell vector modules (Ang)   :   10.000000   10.000000   10.000000
outcell: Cell angles (23,13,12) (deg):     90.0000     90.0000     90.0000
outcell: Cell volume (Ang**3)        :   1000.0000
Gamma-point calculation with multiply-connected orbital pairs
Folding of H and S implicitly performed
<dSpData1D:S at geom step 100
  <sparsity:sparsity for geom step 100
    nrows_g=36 nrows=36 sparsity=.8796 nnzs=1140, refcount: 7>
  <dData1D:(new from dSpData1D) n=1140, refcount: 1>
refcount: 1>
new_DM -- step:   100
Re-using DM from previous geometries...
Number of DMs in history: 1
 DM extrapolation coefficients: 
1   1.00000
New DM after history re-use:
<dSpData2D:SpM extrapolated using coords
  <sparsity:sparsity for geom step 100
    nrows_g=36 nrows=36 sparsity=.8796 nnzs=1140, refcount: 9>
  <dData2D:(temp array for extrapolation) n=1140 m=1, refcount: 1>
refcount: 1>
Note: For starting DM, Qtot, Tr[D*S] =         14.00000000         13.96355131
No. of atoms with KB's overlaping orbs in proc 0. Max # of overlaps:       4      26
New grid distribution:   1
           1       1:   45    1:   45    1:   45

InitMesh: MESH =    90 x    90 x    90 =      729000
InitMesh: (bp) =    45 x    45 x    45 =       91125
InitMesh: Mesh cutoff (required, used) =   200.000   223.865 Ry
ExtMesh (bp) on 0 =   117 x   117 x   117 =     1601613
PhiOnMesh: Number of (b)points on node 0 =                91125
PhiOnMesh: nlist on node 0 =               451263

        iscf     Eharris(eV)        E_KS(eV)     FreeEng(eV)     dDmax    Ef(eV) dHmax(eV)
   scf:    1     -900.565454     -900.575278     -900.644588  0.106129 -6.669453  0.554682
   scf:    2     -900.544179     -900.568358     -900.637090  0.398287 -7.146593  0.607054
   scf:    3     -900.584838     -900.578628     -900.647846  0.162518 -6.947709  0.111026
   scf:    4     -900.577633     -900.579722     -900.648998  0.047739 -6.955419  0.074740
   scf:    5     -900.579090     -900.579908     -900.649216  0.032762 -6.996181  0.101447
   scf:    6     -900.579456     -900.579759     -900.649073  0.020588 -7.021320  0.150923
   scf:    7     -900.580384     -900.580207     -900.649522  0.055760 -6.964956  0.012617
   scf:    8     -900.580205     -900.580207     -900.649521  0.004405 -6.970109  0.005079
   scf:    9     -900.580210     -900.580209     -900.649524  0.003317 -6.970982  0.000351
   scf:   10     -900.580209     -900.580209     -900.649524  0.000045 -6.971044  0.000346

SCF Convergence by DM+H criterion
max |DM_out - DM_in|         :     0.0000447301
max |H_out - H_in|      (eV) :     0.0003462545
SCF cycle converged after 10 iterations

Using DM_out to compute the final energy and forces
No. of atoms with KB's overlaping orbs in proc 0. Max # of overlaps:       4      26

siesta: E_KS(eV) =             -900.5802

siesta: Atomic forces (eV/Ang):
----------------------------------------
   Tot   -0.001952   -0.000562   -0.005128
----------------------------------------
   Max    1.149578
   Res    0.500838    sqrt( Sum f_i^2 / 3N )
----------------------------------------
   Max    1.149578    constrained

Stress tensor Voigt[x,y,z,yz,xz,xy] (kbar):      -68.08       -3.60        0.01        0.09       -0.08        3.28
(Free)E + p*V (eV/cell)     -885.7387
Target enthalpy (eV/cell)     -900.6495

siesta: Stress tensor (static) (eV/Ang**3):
         0.001756    0.000447    0.000012
         0.000447    0.000118    0.000004
         0.000012    0.000004    0.000006

siesta: Pressure (static):         -1.00369457  kBar

siesta: Stress tensor (total) (eV/Ang**3):
        -0.042492    0.002049   -0.000049
         0.002049   -0.002245    0.000058
        -0.000049    0.000058    0.000004

siesta: Pressure (total):         23.88996667  kBar

siesta: Temp_ion =   60557.680 K

coxmol: Writing XMOL coordinates into file xoc.xyz                                                             

siesta: Program's energy decomposition (eV):
siesta: Ebs     =      -212.455073
siesta: Eions   =      1592.294315
siesta: Ena     =       380.503488
siesta: Ekin    =       633.411786
siesta: Enl     =       -92.597415
siesta: Eso     =         0.000000
siesta: Edftu   =         0.000000
siesta: DEna    =       -25.586160
siesta: DUscf   =         1.428363
siesta: DUext   =         0.000000
siesta: Exc     =      -205.445956
siesta: eta*DQ  =         0.000000
siesta: Emadel  =         0.000000
siesta: Emeta   =         0.000000
siesta: Emolmec =         0.000000
siesta: Ekinion =        23.482149
siesta: Eharris =      -877.098061
siesta: Etot    =      -877.098061
siesta: FreeEng =      -877.167375

siesta: Final energy (eV):
siesta:  Band Struct. =    -212.455073
siesta:       Kinetic =     633.411786
siesta:       Hartree =     848.374741
siesta:       Edftu   =       0.000000
siesta:       Eso     =       0.000000
siesta:    Ext. field =       0.000000
siesta:   Exch.-corr. =    -205.445956
siesta:  Ion-electron =   -2280.866953
siesta:       Ion-ion =     103.946173
siesta:       Ekinion =      23.482149
siesta:         Total =    -877.098061
siesta:         Fermi =      -6.971044

siesta: Atomic forces (eV/Ang):
siesta:      1   -1.140193   -0.271436   -0.001987
siesta:      2    1.149578    0.276095   -0.002147
siesta:      3    0.326875    0.089501    0.012954
siesta:      4   -0.338212   -0.094722   -0.013948
siesta: ----------------------------------------
siesta:    Tot   -0.001952   -0.000562   -0.005128

siesta: Stress tensor (static) (eV/Ang**3):
siesta:     0.001756    0.000447    0.000012
siesta:     0.000447    0.000118    0.000004
siesta:     0.000012    0.000004    0.000006

siesta: Cell volume =       1000.000000 Ang**3

siesta: Pressure (static):
siesta:                Solid            Molecule  Units
siesta:          -0.00000682          0.00000020  Ry/Bohr**3
siesta:          -0.00062645          0.00001869  eV/Ang**3
siesta:          -1.00369457          0.02994907  kBar
(Free)E+ p_basis*V_orbitals  =        -898.440933
(Free)Eharris+ p_basis*V_orbitals  =        -898.440933

siesta: Electric dipole (a.u.)  =    0.000000   -0.000000   -0.000061
siesta: Electric dipole (Debye) =    0.000000   -0.000000   -0.000156

cite: Please see "xoc.bib" for an exhaustive BiBTeX file.
cite: Please clearly indicate Siesta version in published work: 4.1.5
cite: This calculation has made use of the following articles
cite: which are encouraged to be cited in a published work.
        Primary SIESTA paper
          DOI: www.doi.org/10.1088/0953-8984/14/11/302


timer: Elapsed wall time (sec) =     609.105
timer: CPU execution times (sec):

Routine            Calls   Time/call    Tot.time        %
siesta                 1     875.042     875.042   100.00
Setup                  1       0.362       0.362     0.04
bands                  1       0.000       0.000     0.00
KSV_init               1       0.000       0.000     0.00
IterGeom             100       8.747     874.679    99.96
state_init           100       0.003       0.342     0.04
hsparse              100       0.000       0.028     0.00
overlap              100       0.003       0.251     0.03
Setup_H0             100       0.574      57.364     6.56
naefs                200       0.000       0.009     0.00
MolMec               200       0.000       0.000     0.00
kinefsm              200       0.001       0.289     0.03
nlefsm               200       0.007       1.363     0.16
DHSCF_Init           100       0.559      55.875     6.39
DHSCF1               100       0.041       4.127     0.47
INITMESH             100       0.000       0.002     0.00
DHSCF2               100       0.517      51.748     5.91
REMESH               100       0.099       9.857     1.13
REORD               4044       0.002       7.958     0.91
PHION                100       0.330      33.015     3.77
COMM_BSC            5388       0.002       8.123     0.93
POISON              1372       0.136     186.437    21.31
fft                 2744       0.051     140.379    16.04
IterSCF             1072       0.690     739.320    84.49
setup_H             1172       0.630     738.035    84.34
DHSCF               1272       0.641     815.287    93.17
DHSCF3              1272       0.612     778.352    88.95
rhoofd              1272       0.117     148.407    16.96
XC                  1272       0.287     365.417    41.76
GXC-CellXC          1272       0.285     362.923    41.47
cellXC              1272       0.285     362.913    41.47
vmat                1272       0.026      33.600     3.84
compute_dm          1072       0.001       0.980     0.11
diagon              1072       0.001       0.949     0.11
r-eigvec            1072       0.001       0.570     0.07
r-buildHS           1072       0.000       0.011     0.00
rdiag               1072       0.001       0.545     0.06
rdiag1              1072       0.000       0.019     0.00
rdiag2              1072       0.000       0.039     0.00
rdiag3              1072       0.000       0.198     0.02
rdiag4              1072       0.000       0.262     0.03
r-buildD            1072       0.000       0.281     0.03
MIXER                972       0.000       0.073     0.01
PostSCF              100       0.775      77.523     8.86
DHSCF4               100       0.369      36.927     4.22
dfscf                100       0.311      31.099     3.55
overfsm              100       0.000       0.047     0.01
state_analysis       100       0.000       0.041     0.00
siesta_move          100       0.001       0.065     0.01
Analysis               1       0.001       0.001     0.00
siesta_analysis        1       0.001       0.001     0.00
optical                1       0.000       0.000     0.00
  
>> End of run:  18-MAR-2024  22:43:47
Job completed
